s 50.000000000 _0_ AGT  --- 0 cbr 50 [0 0 0 0] [energy 1000.000000 ei 0.000 es 0.000 et 0.000 er 0.000] ------- [0:0 1:0 32 0] [0] 0 0
r 50.000000000 _0_ RTR  --- 0 cbr 50 [0 0 0 0] [energy 1000.000000 ei 0.000 es 0.000 et 0.000 er 0.000] ------- [0:0 1:0 32 0] [0] 0 0
s 50.000000000 _0_ RTR  --- 0 cbr 50 [0 0 0 0] [energy 1000.000000 ei 0.000 es 0.000 et 0.000 er 0.000] ------- [0:0 1:0 32 0] [0] 0 0
s 50.000095000 _0_ MAC  --- 0 ARP 86 [0 ffffffff 0 806] [energy 1000.000000 ei 0.000 es 0.000 et 0.000 er 0.000] ------- [REQUEST 0/0 0/1]
N -t 50.000095 -n 1 -e 949.999217
r 50.000783248 _1_ MAC  --- 0 ARP 28 [0 ffffffff 0 806] [energy 949.999217 ei 50.000 es 0.000 et 0.000 er 0.001] ------- [REQUEST 0/0 0/1]
s 50.001158248 _1_ MAC  --- 0 RTS 44 [52e 0 1 0] [energy 949.999217 ei 50.000 es 0.000 et 0.000 er 0.001] 
N -t 50.001158 -n 0 -e 949.998490
r 50.001510496 _0_ MAC  --- 0 RTS 44 [52e 0 1 0] [energy 949.998490 ei 50.000 es 0.000 et 0.001 er 0.000] 
s 50.001520496 _0_ MAC  --- 0 CTS 38 [3f4 1 0 0] [energy 949.998490 ei 50.000 es 0.000 et 0.001 er 0.000] 
N -t 50.001521 -n 1 -e 949.998175
r 50.001824744 _1_ MAC  --- 0 CTS 38 [3f4 1 0 0] [energy 949.998175 ei 50.000 es 0.000 et 0.000 er 0.001] 
s 50.001834744 _1_ MAC  --- 0 ARP 86 [13a 0 1 806] [energy 949.998175 ei 50.000 es 0.000 et 0.000 er 0.001] ------- [REPLY 1/1 0/0]
N -t 50.001835 -n 0 -e 949.997477
r 50.002522993 _0_ MAC  --- 0 ARP 28 [13a 0 1 806] [energy 949.997477 ei 50.000 es 0.000 et 0.001 er 0.001] ------- [REPLY 1/1 0/0]
s 50.002532993 _0_ MAC  --- 0 ACK 38 [0 1 0 0] [energy 949.997477 ei 50.000 es 0.000 et 0.001 er 0.001] 
N -t 50.002533 -n 1 -e 949.997163
r 50.002837241 _1_ MAC  --- 0 ACK 38 [0 1 0 0] [energy 949.997163 ei 50.001 es 0.000 et 0.001 er 0.001] 
s 50.003246993 _0_ MAC  --- 0 RTS 44 [5de 1 0 0] [energy 949.997163 ei 50.001 es 0.000 et 0.001 er 0.001] 
N -t 50.003247 -n 1 -e 949.996401
r 50.003599241 _1_ MAC  --- 0 RTS 44 [5de 1 0 0] [energy 949.996401 ei 50.001 es 0.000 et 0.001 er 0.002] 
s 50.003609241 _1_ MAC  --- 0 CTS 38 [4a4 0 0 0] [energy 949.996401 ei 50.001 es 0.000 et 0.001 er 0.002] 
N -t 50.003609 -n 0 -e 949.996087
r 50.003913489 _0_ MAC  --- 0 CTS 38 [4a4 0 0 0] [energy 949.996087 ei 50.001 es 0.000 et 0.002 er 0.001] 
s 50.003923489 _0_ MAC  --- 0 cbr 108 [13a 1 0 800] [energy 949.996087 ei 50.001 es 0.000 et 0.002 er 0.001] ------- [0:0 1:0 32 0] [0] 0 0
N -t 50.003924 -n 1 -e 949.995212
r 50.004787737 _1_ MAC  --- 0 cbr 50 [13a 1 0 800] [energy 949.995212 ei 50.001 es 0.000 et 0.001 er 0.003] ------- [0:0 1:0 32 0] [0] 1 0
s 50.004797737 _1_ MAC  --- 0 ACK 38 [0 0 0 0] [energy 949.995212 ei 50.001 es 0.000 et 0.001 er 0.003] 
N -t 50.004798 -n 0 -e 949.994898
r 50.004812737 _1_ AGT  --- 0 cbr 50 [13a 1 0 800] [energy 949.994898 ei 50.001 es 0.000 et 0.002 er 0.003] ------- [0:0 1:0 32 0] [0] 1 0
r 50.005101985 _0_ MAC  --- 0 ACK 38 [0 0 0 0] [energy 949.994898 ei 50.001 es 0.000 et 0.003 er 0.002] 
s 55.003395772 _0_ AGT  --- 1 cbr 50 [0 0 0 0] [energy 949.994898 ei 50.001 es 0.000 et 0.003 er 0.002] ------- [0:0 1:0 32 0] [1] 0 0
r 55.003395772 _0_ RTR  --- 1 cbr 50 [0 0 0 0] [energy 949.994898 ei 50.001 es 0.000 et 0.003 er 0.002] ------- [0:0 1:0 32 0] [1] 0 0
s 55.003395772 _0_ RTR  --- 1 cbr 50 [0 0 0 0] [energy 949.994898 ei 50.001 es 0.000 et 0.003 er 0.002] ------- [0:0 1:0 32 0] [1] 0 0
s 55.003630772 _0_ MAC  --- 0 RTS 44 [5de 1 0 0] [energy 949.994898 ei 50.001 es 0.000 et 0.003 er 0.002] 
N -t 55.003631 -n 1 -e 944.996017
r 55.003983020 _1_ MAC  --- 0 RTS 44 [5de 1 0 0] [energy 944.996017 ei 54.999 es 0.000 et 0.002 er 0.003] 
s 55.003993020 _1_ MAC  --- 0 CTS 38 [4a4 0 0 0] [energy 944.996017 ei 54.999 es 0.000 et 0.002 er 0.003] 
N -t 55.003993 -n 0 -e 944.995703
r 55.004297269 _0_ MAC  --- 0 CTS 38 [4a4 0 0 0] [energy 944.995703 ei 54.999 es 0.000 et 0.003 er 0.002] 
s 55.004307269 _0_ MAC  --- 1 cbr 108 [13a 1 0 800] [energy 944.995703 ei 54.999 es 0.000 et 0.003 er 0.002] ------- [0:0 1:0 32 0] [1] 0 0
N -t 55.004308 -n 1 -e 944.994828
r 55.005171517 _1_ MAC  --- 1 cbr 50 [13a 1 0 800] [energy 944.994828 ei 54.999 es 0.000 et 0.002 er 0.004] ------- [0:0 1:0 32 0] [1] 1 0
s 55.005181517 _1_ MAC  --- 0 ACK 38 [0 0 0 0] [energy 944.994828 ei 54.999 es 0.000 et 0.002 er 0.004] 
N -t 55.005182 -n 0 -e 944.994514
r 55.005196517 _1_ AGT  --- 1 cbr 50 [13a 1 0 800] [energy 944.994514 ei 55.000 es 0.000 et 0.002 er 0.004] ------- [0:0 1:0 32 0] [1] 1 0
r 55.005485765 _0_ MAC  --- 0 ACK 38 [0 0 0 0] [energy 944.994514 ei 55.000 es 0.000 et 0.004 er 0.002] 
s 68.600672746 _0_ AGT  --- 2 cbr 50 [0 0 0 0] [energy 944.994514 ei 55.000 es 0.000 et 0.004 er 0.002] ------- [0:0 1:0 32 0] [2] 0 0
r 68.600672746 _0_ RTR  --- 2 cbr 50 [0 0 0 0] [energy 944.994514 ei 55.000 es 0.000 et 0.004 er 0.002] ------- [0:0 1:0 32 0] [2] 0 0
s 68.600672746 _0_ RTR  --- 2 cbr 50 [0 0 0 0] [energy 944.994514 ei 55.000 es 0.000 et 0.004 er 0.002] ------- [0:0 1:0 32 0] [2] 0 0
s 68.600987746 _0_ MAC  --- 0 RTS 44 [5de 1 0 0] [energy 944.994514 ei 55.000 es 0.000 et 0.004 er 0.002] 
N -t 68.600988 -n 1 -e 931.398660
r 68.601339994 _1_ MAC  --- 0 RTS 44 [5de 1 0 0] [energy 931.398660 ei 68.595 es 0.000 et 0.002 er 0.004] 
s 68.601349994 _1_ MAC  --- 0 CTS 38 [4a4 0 0 0] [energy 931.398660 ei 68.595 es 0.000 et 0.002 er 0.004] 
N -t 68.601350 -n 0 -e 931.398346
r 68.601654243 _0_ MAC  --- 0 CTS 38 [4a4 0 0 0] [energy 931.398346 ei 68.595 es 0.000 et 0.004 er 0.003] 
s 68.601664243 _0_ MAC  --- 2 cbr 108 [13a 1 0 800] [energy 931.398346 ei 68.595 es 0.000 et 0.004 er 0.003] ------- [0:0 1:0 32 0] [2] 0 0
N -t 68.601664 -n 1 -e 931.397472
r 68.602528491 _1_ MAC  --- 2 cbr 50 [13a 1 0 800] [energy 931.397472 ei 68.595 es 0.000 et 0.003 er 0.005] ------- [0:0 1:0 32 0] [2] 1 0
s 68.602538491 _1_ MAC  --- 0 ACK 38 [0 0 0 0] [energy 931.397472 ei 68.595 es 0.000 et 0.003 er 0.005] 
N -t 68.602539 -n 0 -e 931.397157
r 68.602553491 _1_ AGT  --- 2 cbr 50 [13a 1 0 800] [energy 931.397158 ei 68.595 es 0.000 et 0.003 er 0.005] ------- [0:0 1:0 32 0] [2] 1 0
r 68.602842739 _0_ MAC  --- 0 ACK 38 [0 0 0 0] [energy 931.397157 ei 68.595 es 0.000 et 0.005 er 0.003] 
s 77.687529507 _0_ AGT  --- 3 cbr 50 [0 0 0 0] [energy 931.397157 ei 68.595 es 0.000 et 0.005 er 0.003] ------- [0:0 1:0 32 0] [3] 0 0
r 77.687529507 _0_ RTR  --- 3 cbr 50 [0 0 0 0] [energy 931.397157 ei 68.595 es 0.000 et 0.005 er 0.003] ------- [0:0 1:0 32 0] [3] 0 0
s 77.687529507 _0_ RTR  --- 3 cbr 50 [0 0 0 0] [energy 931.397157 ei 68.595 es 0.000 et 0.005 er 0.003] ------- [0:0 1:0 32 0] [3] 0 0
s 77.687644507 _0_ MAC  --- 0 RTS 44 [5de 1 0 0] [energy 931.397157 ei 68.595 es 0.000 et 0.005 er 0.003] 
N -t 77.687645 -n 1 -e 922.312003
r 77.687996755 _1_ MAC  --- 0 RTS 44 [5de 1 0 0] [energy 922.312003 ei 77.680 es 0.000 et 0.003 er 0.005] 
s 77.688006755 _1_ MAC  --- 0 CTS 38 [4a4 0 0 0] [energy 922.312003 ei 77.680 es 0.000 et 0.003 er 0.005] 
N -t 77.688007 -n 0 -e 922.311689
r 77.688311003 _0_ MAC  --- 0 CTS 38 [4a4 0 0 0] [energy 922.311689 ei 77.680 es 0.000 et 0.005 er 0.003] 
s 77.688321003 _0_ MAC  --- 3 cbr 108 [13a 1 0 800] [energy 922.311689 ei 77.680 es 0.000 et 0.005 er 0.003] ------- [0:0 1:0 32 0] [3] 0 0
N -t 77.688321 -n 1 -e 922.310815
r 77.689185251 _1_ MAC  --- 3 cbr 50 [13a 1 0 800] [energy 922.310815 ei 77.680 es 0.000 et 0.003 er 0.006] ------- [0:0 1:0 32 0] [3] 1 0
s 77.689195251 _1_ MAC  --- 0 ACK 38 [0 0 0 0] [energy 922.310815 ei 77.680 es 0.000 et 0.003 er 0.006] 
N -t 77.689195 -n 0 -e 922.310501
r 77.689210251 _1_ AGT  --- 3 cbr 50 [13a 1 0 800] [energy 922.310501 ei 77.680 es 0.000 et 0.003 er 0.006] ------- [0:0 1:0 32 0] [3] 1 0
r 77.689499500 _0_ MAC  --- 0 ACK 38 [0 0 0 0] [energy 922.310501 ei 77.680 es 0.000 et 0.006 er 0.003] 
s 85.099785787 _0_ AGT  --- 4 cbr 50 [0 0 0 0] [energy 922.310501 ei 77.680 es 0.000 et 0.006 er 0.003] ------- [0:0 1:0 32 0] [4] 0 0
r 85.099785787 _0_ RTR  --- 4 cbr 50 [0 0 0 0] [energy 922.310501 ei 77.680 es 0.000 et 0.006 er 0.003] ------- [0:0 1:0 32 0] [4] 0 0
s 85.099785787 _0_ RTR  --- 4 cbr 50 [0 0 0 0] [energy 922.310501 ei 77.680 es 0.000 et 0.006 er 0.003] ------- [0:0 1:0 32 0] [4] 0 0
s 85.099960787 _0_ MAC  --- 0 RTS 44 [5de 1 0 0] [energy 922.310501 ei 77.680 es 0.000 et 0.006 er 0.003] 
N -t 85.099961 -n 1 -e 914.899687
r 85.100313035 _1_ MAC  --- 0 RTS 44 [5de 1 0 0] [energy 914.899687 ei 85.090 es 0.000 et 0.003 er 0.007] 
s 85.100323035 _1_ MAC  --- 0 CTS 38 [4a4 0 0 0] [energy 914.899687 ei 85.090 es 0.000 et 0.003 er 0.007] 
N -t 85.100323 -n 0 -e 914.899373
r 85.100627283 _0_ MAC  --- 0 CTS 38 [4a4 0 0 0] [energy 914.899373 ei 85.090 es 0.000 et 0.007 er 0.004] 
s 85.100637283 _0_ MAC  --- 4 cbr 108 [13a 1 0 800] [energy 914.899373 ei 85.090 es 0.000 et 0.007 er 0.004] ------- [0:0 1:0 32 0] [4] 0 0
N -t 85.100638 -n 1 -e 914.898498
r 85.101501531 _1_ MAC  --- 4 cbr 50 [13a 1 0 800] [energy 914.898498 ei 85.090 es 0.000 et 0.004 er 0.007] ------- [0:0 1:0 32 0] [4] 1 0
s 85.101511531 _1_ MAC  --- 0 ACK 38 [0 0 0 0] [energy 914.898498 ei 85.090 es 0.000 et 0.004 er 0.007] 
N -t 85.101512 -n 0 -e 914.898184
r 85.101526531 _1_ AGT  --- 4 cbr 50 [13a 1 0 800] [energy 914.898184 ei 85.090 es 0.000 et 0.004 er 0.007] ------- [0:0 1:0 32 0] [4] 1 0
r 85.101815779 _0_ MAC  --- 0 ACK 38 [0 0 0 0] [energy 914.898184 ei 85.090 es 0.000 et 0.007 er 0.004] 
s 94.141861068 _0_ AGT  --- 5 cbr 50 [0 0 0 0] [energy 914.898184 ei 85.090 es 0.000 et 0.007 er 0.004] ------- [0:0 1:0 32 0] [5] 0 0
r 94.141861068 _0_ RTR  --- 5 cbr 50 [0 0 0 0] [energy 914.898184 ei 85.090 es 0.000 et 0.007 er 0.004] ------- [0:0 1:0 32 0] [5] 0 0
s 94.141861068 _0_ RTR  --- 5 cbr 50 [0 0 0 0] [energy 914.898184 ei 85.090 es 0.000 et 0.007 er 0.004] ------- [0:0 1:0 32 0] [5] 0 0
s 94.142276068 _0_ MAC  --- 0 RTS 44 [5de 1 0 0] [energy 914.898184 ei 85.090 es 0.000 et 0.007 er 0.004] 
N -t 94.142276 -n 1 -e 905.857372
r 94.142628316 _1_ MAC  --- 0 RTS 44 [5de 1 0 0] [energy 905.857372 ei 94.131 es 0.000 et 0.004 er 0.008] 
s 94.142638316 _1_ MAC  --- 0 CTS 38 [4a4 0 0 0] [energy 905.857372 ei 94.131 es 0.000 et 0.004 er 0.008] 
N -t 94.142639 -n 0 -e 905.857057
r 94.142942564 _0_ MAC  --- 0 CTS 38 [4a4 0 0 0] [energy 905.857057 ei 94.131 es 0.000 et 0.008 er 0.004] 
s 94.142952564 _0_ MAC  --- 5 cbr 108 [13a 1 0 800] [energy 905.857057 ei 94.131 es 0.000 et 0.008 er 0.004] ------- [0:0 1:0 32 0] [5] 0 0
N -t 94.142953 -n 1 -e 905.856183
r 94.143816812 _1_ MAC  --- 5 cbr 50 [13a 1 0 800] [energy 905.856183 ei 94.131 es 0.000 et 0.004 er 0.009] ------- [0:0 1:0 32 0] [5] 1 0
s 94.143826812 _1_ MAC  --- 0 ACK 38 [0 0 0 0] [energy 905.856183 ei 94.131 es 0.000 et 0.004 er 0.009] 
N -t 94.143827 -n 0 -e 905.855869
r 94.143841812 _1_ AGT  --- 5 cbr 50 [13a 1 0 800] [energy 905.855869 ei 94.131 es 0.000 et 0.005 er 0.009] ------- [0:0 1:0 32 0] [5] 1 0
r 94.144131061 _0_ MAC  --- 0 ACK 38 [0 0 0 0] [energy 905.855869 ei 94.131 es 0.000 et 0.009 er 0.005] 
s 99.249944450 _0_ AGT  --- 6 cbr 50 [0 0 0 0] [energy 905.855869 ei 94.131 es 0.000 et 0.009 er 0.005] ------- [0:0 1:0 32 0] [6] 0 0
r 99.249944450 _0_ RTR  --- 6 cbr 50 [0 0 0 0] [energy 905.855869 ei 94.131 es 0.000 et 0.009 er 0.005] ------- [0:0 1:0 32 0] [6] 0 0
s 99.249944450 _0_ RTR  --- 6 cbr 50 [0 0 0 0] [energy 905.855869 ei 94.131 es 0.000 et 0.009 er 0.005] ------- [0:0 1:0 32 0] [6] 0 0
s 99.250239450 _0_ MAC  --- 0 RTS 44 [5de 1 0 0] [energy 905.855869 ei 94.131 es 0.000 et 0.009 er 0.005] 
N -t 99.250240 -n 1 -e 900.749408
r 99.250591698 _1_ MAC  --- 0 RTS 44 [5de 1 0 0] [energy 900.749408 ei 99.237 es 0.000 et 0.005 er 0.009] 
s 99.250601698 _1_ MAC  --- 0 CTS 38 [4a4 0 0 0] [energy 900.749408 ei 99.237 es 0.000 et 0.005 er 0.009] 
N -t 99.250602 -n 0 -e 900.749094
r 99.250905947 _0_ MAC  --- 0 CTS 38 [4a4 0 0 0] [energy 900.749094 ei 99.237 es 0.000 et 0.009 er 0.005] 
s 99.250915947 _0_ MAC  --- 6 cbr 108 [13a 1 0 800] [energy 900.749094 ei 99.237 es 0.000 et 0.009 er 0.005] ------- [0:0 1:0 32 0] [6] 0 0
N -t 99.250916 -n 1 -e 900.748220
r 99.251780195 _1_ MAC  --- 6 cbr 50 [13a 1 0 800] [energy 900.748220 ei 99.237 es 0.000 et 0.005 er 0.010] ------- [0:0 1:0 32 0] [6] 1 0
s 99.251790195 _1_ MAC  --- 0 ACK 38 [0 0 0 0] [energy 900.748220 ei 99.237 es 0.000 et 0.005 er 0.010] 
N -t 99.251790 -n 0 -e 900.747906
r 99.251805195 _1_ AGT  --- 6 cbr 50 [13a 1 0 800] [energy 900.747906 ei 99.237 es 0.000 et 0.005 er 0.010] ------- [0:0 1:0 32 0] [6] 1 0
r 99.252094443 _0_ MAC  --- 0 ACK 38 [0 0 0 0] [energy 900.747906 ei 99.237 es 0.000 et 0.010 er 0.005] 
s 109.698164120 _0_ AGT  --- 7 cbr 50 [0 0 0 0] [energy 900.747906 ei 99.237 es 0.000 et 0.010 er 0.005] ------- [0:0 1:0 32 0] [7] 0 0
r 109.698164120 _0_ RTR  --- 7 cbr 50 [0 0 0 0] [energy 900.747906 ei 99.237 es 0.000 et 0.010 er 0.005] ------- [0:0 1:0 32 0] [7] 0 0
s 109.698164120 _0_ RTR  --- 7 cbr 50 [0 0 0 0] [energy 900.747906 ei 99.237 es 0.000 et 0.010 er 0.005] ------- [0:0 1:0 32 0] [7] 0 0
s 109.698479120 _0_ MAC  --- 0 RTS 44 [5de 1 0 0] [energy 900.747906 ei 99.237 es 0.000 et 0.010 er 0.005] 
N -t 109.698479 -n 1 -e 890.301169
r 109.698831368 _1_ MAC  --- 0 RTS 44 [5de 1 0 0] [energy 890.301169 ei 109.683 es 0.000 et 0.005 er 0.010] 
s 109.698841368 _1_ MAC  --- 0 CTS 38 [4a4 0 0 0] [energy 890.301169 ei 109.683 es 0.000 et 0.005 er 0.010] 
N -t 109.698842 -n 0 -e 890.300854
r 109.699145616 _0_ MAC  --- 0 CTS 38 [4a4 0 0 0] [energy 890.300854 ei 109.683 es 0.000 et 0.010 er 0.006] 
s 109.699155616 _0_ MAC  --- 7 cbr 108 [13a 1 0 800] [energy 890.300854 ei 109.683 es 0.000 et 0.010 er 0.006] ------- [0:0 1:0 32 0] [7] 0 0
N -t 109.699156 -n 1 -e 890.299980
r 109.700019865 _1_ MAC  --- 7 cbr 50 [13a 1 0 800] [energy 890.299980 ei 109.683 es 0.000 et 0.006 er 0.011] ------- [0:0 1:0 32 0] [7] 1 0
s 109.700029865 _1_ MAC  --- 0 ACK 38 [0 0 0 0] [energy 890.299980 ei 109.683 es 0.000 et 0.006 er 0.011] 
N -t 109.700030 -n 0 -e 890.299666
r 109.700044865 _1_ AGT  --- 7 cbr 50 [13a 1 0 800] [energy 890.299666 ei 109.683 es 0.000 et 0.006 er 0.011] ------- [0:0 1:0 32 0] [7] 1 0
r 109.700334113 _0_ MAC  --- 0 ACK 38 [0 0 0 0] [energy 890.299666 ei 109.683 es 0.000 et 0.011 er 0.006] 
s 116.560306655 _0_ AGT  --- 8 cbr 50 [0 0 0 0] [energy 890.299666 ei 109.683 es 0.000 et 0.011 er 0.006] ------- [0:0 1:0 32 0] [8] 0 0
r 116.560306655 _0_ RTR  --- 8 cbr 50 [0 0 0 0] [energy 890.299666 ei 109.683 es 0.000 et 0.011 er 0.006] ------- [0:0 1:0 32 0] [8] 0 0
s 116.560306655 _0_ RTR  --- 8 cbr 50 [0 0 0 0] [energy 890.299666 ei 109.683 es 0.000 et 0.011 er 0.006] ------- [0:0 1:0 32 0] [8] 0 0
s 116.560681655 _0_ MAC  --- 0 RTS 44 [5de 1 0 0] [energy 890.299666 ei 109.683 es 0.000 et 0.011 er 0.006] 
N -t 116.560682 -n 1 -e 883.438966
r 116.561033903 _1_ MAC  --- 0 RTS 44 [5de 1 0 0] [energy 883.438966 ei 116.544 es 0.000 et 0.006 er 0.011] 
s 116.561043903 _1_ MAC  --- 0 CTS 38 [4a4 0 0 0] [energy 883.438966 ei 116.544 es 0.000 et 0.006 er 0.011] 
N -t 116.561044 -n 0 -e 883.438652
r 116.561348151 _0_ MAC  --- 0 CTS 38 [4a4 0 0 0] [energy 883.438652 ei 116.544 es 0.000 et 0.011 er 0.006] 
s 116.561358151 _0_ MAC  --- 8 cbr 108 [13a 1 0 800] [energy 883.438652 ei 116.544 es 0.000 et 0.011 er 0.006] ------- [0:0 1:0 32 0] [8] 0 0
N -t 116.561358 -n 1 -e 883.437778
r 116.562222399 _1_ MAC  --- 8 cbr 50 [13a 1 0 800] [energy 883.437778 ei 116.544 es 0.000 et 0.006 er 0.012] ------- [0:0 1:0 32 0] [8] 1 0
s 116.562232399 _1_ MAC  --- 0 ACK 38 [0 0 0 0] [energy 883.437778 ei 116.544 es 0.000 et 0.006 er 0.012] 
N -t 116.562233 -n 0 -e 883.437463
r 116.562247399 _1_ AGT  --- 8 cbr 50 [13a 1 0 800] [energy 883.437464 ei 116.544 es 0.000 et 0.007 er 0.012] ------- [0:0 1:0 32 0] [8] 1 0
r 116.562536648 _0_ MAC  --- 0 ACK 38 [0 0 0 0] [energy 883.437463 ei 116.544 es 0.000 et 0.012 er 0.007] 
s 131.320373655 _0_ AGT  --- 9 cbr 50 [0 0 0 0] [energy 883.437463 ei 116.544 es 0.000 et 0.012 er 0.007] ------- [0:0 1:0 32 0] [9] 0 0
r 131.320373655 _0_ RTR  --- 9 cbr 50 [0 0 0 0] [energy 883.437463 ei 116.544 es 0.000 et 0.012 er 0.007] ------- [0:0 1:0 32 0] [9] 0 0
s 131.320373655 _0_ RTR  --- 9 cbr 50 [0 0 0 0] [energy 883.437463 ei 116.544 es 0.000 et 0.012 er 0.007] ------- [0:0 1:0 32 0] [9] 0 0
s 131.320708655 _0_ MAC  --- 0 RTS 44 [5de 1 0 0] [energy 883.437463 ei 116.544 es 0.000 et 0.012 er 0.007] 
N -t 131.320709 -n 1 -e 868.678939
r 131.321060903 _1_ MAC  --- 0 RTS 44 [5de 1 0 0] [energy 868.678939 ei 131.302 es 0.000 et 0.007 er 0.013] 
s 131.321070903 _1_ MAC  --- 0 CTS 38 [4a4 0 0 0] [energy 868.678939 ei 131.302 es 0.000 et 0.007 er 0.013] 
N -t 131.321071 -n 0 -e 868.678625
r 131.321375151 _0_ MAC  --- 0 CTS 38 [4a4 0 0 0] [energy 868.678625 ei 131.302 es 0.000 et 0.013 er 0.007] 
s 131.321385151 _0_ MAC  --- 9 cbr 108 [13a 1 0 800] [energy 868.678625 ei 131.302 es 0.000 et 0.013 er 0.007] ------- [0:0 1:0 32 0] [9] 0 0
N -t 131.321385 -n 1 -e 868.677751
r 131.322249399 _1_ MAC  --- 9 cbr 50 [13a 1 0 800] [energy 868.677751 ei 131.302 es 0.000 et 0.007 er 0.013] ------- [0:0 1:0 32 0] [9] 1 0
s 131.322259399 _1_ MAC  --- 0 ACK 38 [0 0 0 0] [energy 868.677751 ei 131.302 es 0.000 et 0.007 er 0.013] 
N -t 131.322260 -n 0 -e 868.677436
r 131.322274399 _1_ AGT  --- 9 cbr 50 [13a 1 0 800] [energy 868.677437 ei 131.302 es 0.000 et 0.007 er 0.013] ------- [0:0 1:0 32 0] [9] 1 0
r 131.322563647 _0_ MAC  --- 0 ACK 38 [0 0 0 0] [energy 868.677436 ei 131.302 es 0.000 et 0.013 er 0.007] 
s 140.532574163 _0_ AGT  --- 10 cbr 50 [0 0 0 0] [energy 868.677436 ei 131.302 es 0.000 et 0.013 er 0.007] ------- [0:0 1:0 32 0] [10] 0 0
r 140.532574163 _0_ RTR  --- 10 cbr 50 [0 0 0 0] [energy 868.677436 ei 131.302 es 0.000 et 0.013 er 0.007] ------- [0:0 1:0 32 0] [10] 0 0
s 140.532574163 _0_ RTR  --- 10 cbr 50 [0 0 0 0] [energy 868.677436 ei 131.302 es 0.000 et 0.013 er 0.007] ------- [0:0 1:0 32 0] [10] 0 0
s 140.533229163 _0_ MAC  --- 0 RTS 44 [5de 1 0 0] [energy 868.677436 ei 131.302 es 0.000 et 0.013 er 0.007] 
N -t 140.533229 -n 1 -e 859.466419
r 140.533581411 _1_ MAC  --- 0 RTS 44 [5de 1 0 0] [energy 859.466419 ei 140.513 es 0.000 et 0.007 er 0.014] 
s 140.533591411 _1_ MAC  --- 0 CTS 38 [4a4 0 0 0] [energy 859.466419 ei 140.513 es 0.000 et 0.007 er 0.014] 
N -t 140.533592 -n 0 -e 859.466104
r 140.533895659 _0_ MAC  --- 0 CTS 38 [4a4 0 0 0] [energy 859.466104 ei 140.513 es 0.000 et 0.014 er 0.007] 
s 140.533905659 _0_ MAC  --- 10 cbr 108 [13a 1 0 800] [energy 859.466104 ei 140.513 es 0.000 et 0.014 er 0.007] ------- [0:0 1:0 32 0] [10] 0 0
N -t 140.533906 -n 1 -e 859.465230
r 140.534769907 _1_ MAC  --- 10 cbr 50 [13a 1 0 800] [energy 859.465230 ei 140.513 es 0.000 et 0.007 er 0.015] ------- [0:0 1:0 32 0] [10] 1 0
s 140.534779907 _1_ MAC  --- 0 ACK 38 [0 0 0 0] [energy 859.465230 ei 140.513 es 0.000 et 0.007 er 0.015] 
N -t 140.534780 -n 0 -e 859.464916
r 140.534794907 _1_ AGT  --- 10 cbr 50 [13a 1 0 800] [energy 859.464916 ei 140.513 es 0.000 et 0.008 er 0.015] ------- [0:0 1:0 32 0] [10] 1 0
r 140.535084155 _0_ MAC  --- 0 ACK 38 [0 0 0 0] [energy 859.464916 ei 140.513 es 0.000 et 0.015 er 0.008] 
s 152.890979455 _0_ AGT  --- 11 cbr 50 [0 0 0 0] [energy 859.464916 ei 140.513 es 0.000 et 0.015 er 0.008] ------- [0:0 1:0 32 0] [11] 0 0
r 152.890979455 _0_ RTR  --- 11 cbr 50 [0 0 0 0] [energy 859.464916 ei 140.513 es 0.000 et 0.015 er 0.008] ------- [0:0 1:0 32 0] [11] 0 0
s 152.890979455 _0_ RTR  --- 11 cbr 50 [0 0 0 0] [energy 859.464916 ei 140.513 es 0.000 et 0.015 er 0.008] ------- [0:0 1:0 32 0] [11] 0 0
s 152.891354455 _0_ MAC  --- 0 RTS 44 [5de 1 0 0] [energy 859.464916 ei 140.513 es 0.000 et 0.015 er 0.008] 
N -t 152.891355 -n 1 -e 847.108293
r 152.891706703 _1_ MAC  --- 0 RTS 44 [5de 1 0 0] [energy 847.108293 ei 152.869 es 0.000 et 0.008 er 0.015] 
s 152.891716703 _1_ MAC  --- 0 CTS 38 [4a4 0 0 0] [energy 847.108293 ei 152.869 es 0.000 et 0.008 er 0.015] 
N -t 152.891717 -n 0 -e 847.107979
r 152.892020951 _0_ MAC  --- 0 CTS 38 [4a4 0 0 0] [energy 847.107979 ei 152.869 es 0.000 et 0.015 er 0.008] 
s 152.892030951 _0_ MAC  --- 11 cbr 108 [13a 1 0 800] [energy 847.107979 ei 152.869 es 0.000 et 0.015 er 0.008] ------- [0:0 1:0 32 0] [11] 0 0
N -t 152.892031 -n 1 -e 847.107105
r 152.892895199 _1_ MAC  --- 11 cbr 50 [13a 1 0 800] [energy 847.107105 ei 152.869 es 0.000 et 0.008 er 0.016] ------- [0:0 1:0 32 0] [11] 1 0
s 152.892905199 _1_ MAC  --- 0 ACK 38 [0 0 0 0] [energy 847.107105 ei 152.869 es 0.000 et 0.008 er 0.016] 
N -t 152.892905 -n 0 -e 847.106791
r 152.892920199 _1_ AGT  --- 11 cbr 50 [13a 1 0 800] [energy 847.106791 ei 152.869 es 0.000 et 0.008 er 0.016] ------- [0:0 1:0 32 0] [11] 1 0
r 152.893209447 _0_ MAC  --- 0 ACK 38 [0 0 0 0] [energy 847.106791 ei 152.869 es 0.000 et 0.016 er 0.008] 
s 159.390863765 _0_ AGT  --- 12 cbr 50 [0 0 0 0] [energy 847.106791 ei 152.869 es 0.000 et 0.016 er 0.008] ------- [0:0 1:0 32 0] [12] 0 0
r 159.390863765 _0_ RTR  --- 12 cbr 50 [0 0 0 0] [energy 847.106791 ei 152.869 es 0.000 et 0.016 er 0.008] ------- [0:0 1:0 32 0] [12] 0 0
s 159.390863765 _0_ RTR  --- 12 cbr 50 [0 0 0 0] [energy 847.106791 ei 152.869 es 0.000 et 0.016 er 0.008] ------- [0:0 1:0 32 0] [12] 0 0
s 159.391378765 _0_ MAC  --- 0 RTS 44 [5de 1 0 0] [energy 847.106791 ei 152.869 es 0.000 et 0.016 er 0.008] 
N -t 159.391379 -n 1 -e 840.608269
r 159.391731013 _1_ MAC  --- 0 RTS 44 [5de 1 0 0] [energy 840.608269 ei 159.367 es 0.000 et 0.008 er 0.016] 
s 159.391741013 _1_ MAC  --- 0 CTS 38 [4a4 0 0 0] [energy 840.608269 ei 159.367 es 0.000 et 0.008 er 0.016] 
N -t 159.391741 -n 0 -e 840.607955
r 159.392045262 _0_ MAC  --- 0 CTS 38 [4a4 0 0 0] [energy 840.607955 ei 159.367 es 0.000 et 0.016 er 0.009] 
s 159.392055262 _0_ MAC  --- 12 cbr 108 [13a 1 0 800] [energy 840.607955 ei 159.367 es 0.000 et 0.016 er 0.009] ------- [0:0 1:0 32 0] [12] 0 0
N -t 159.392056 -n 1 -e 840.607080
r 159.392919510 _1_ MAC  --- 12 cbr 50 [13a 1 0 800] [energy 840.607080 ei 159.367 es 0.000 et 0.009 er 0.017] ------- [0:0 1:0 32 0] [12] 1 0
s 159.392929510 _1_ MAC  --- 0 ACK 38 [0 0 0 0] [energy 840.607080 ei 159.367 es 0.000 et 0.009 er 0.017] 
N -t 159.392930 -n 0 -e 840.606766
r 159.392944510 _1_ AGT  --- 12 cbr 50 [13a 1 0 800] [energy 840.606766 ei 159.367 es 0.000 et 0.009 er 0.017] ------- [0:0 1:0 32 0] [12] 1 0
r 159.393233758 _0_ MAC  --- 0 ACK 38 [0 0 0 0] [energy 840.606766 ei 159.367 es 0.000 et 0.017 er 0.009] 
s 171.347761820 _0_ AGT  --- 13 cbr 50 [0 0 0 0] [energy 840.606766 ei 159.367 es 0.000 et 0.017 er 0.009] ------- [0:0 1:0 32 0] [13] 0 0
r 171.347761820 _0_ RTR  --- 13 cbr 50 [0 0 0 0] [energy 840.606766 ei 159.367 es 0.000 et 0.017 er 0.009] ------- [0:0 1:0 32 0] [13] 0 0
s 171.347761820 _0_ RTR  --- 13 cbr 50 [0 0 0 0] [energy 840.606766 ei 159.367 es 0.000 et 0.017 er 0.009] ------- [0:0 1:0 32 0] [13] 0 0
s 171.348196820 _0_ MAC  --- 0 RTS 44 [5de 1 0 0] [energy 840.606766 ei 159.367 es 0.000 et 0.017 er 0.009] 
N -t 171.348197 -n 1 -e 828.651451
r 171.348549068 _1_ MAC  --- 0 RTS 44 [5de 1 0 0] [energy 828.651451 ei 171.322 es 0.000 et 0.009 er 0.017] 
s 171.348559068 _1_ MAC  --- 0 CTS 38 [4a4 0 0 0] [energy 828.651451 ei 171.322 es 0.000 et 0.009 er 0.017] 
N -t 171.348559 -n 0 -e 828.651137
r 171.348863316 _0_ MAC  --- 0 CTS 38 [4a4 0 0 0] [energy 828.651137 ei 171.322 es 0.000 et 0.017 er 0.009] 
s 171.348873316 _0_ MAC  --- 13 cbr 108 [13a 1 0 800] [energy 828.651137 ei 171.322 es 0.000 et 0.017 er 0.009] ------- [0:0 1:0 32 0] [13] 0 0
N -t 171.348874 -n 1 -e 828.650262
r 171.349737565 _1_ MAC  --- 13 cbr 50 [13a 1 0 800] [energy 828.650262 ei 171.322 es 0.000 et 0.009 er 0.018] ------- [0:0 1:0 32 0] [13] 1 0
s 171.349747565 _1_ MAC  --- 0 ACK 38 [0 0 0 0] [energy 828.650262 ei 171.322 es 0.000 et 0.009 er 0.018] 
N -t 171.349748 -n 0 -e 828.649948
r 171.349762565 _1_ AGT  --- 13 cbr 50 [13a 1 0 800] [energy 828.649948 ei 171.322 es 0.000 et 0.010 er 0.018] ------- [0:0 1:0 32 0] [13] 1 0
r 171.350051813 _0_ MAC  --- 0 ACK 38 [0 0 0 0] [energy 828.649948 ei 171.322 es 0.000 et 0.018 er 0.010] 
s 185.160336600 _0_ AGT  --- 14 cbr 50 [0 0 0 0] [energy 828.649948 ei 171.322 es 0.000 et 0.018 er 0.010] ------- [0:0 1:0 32 0] [14] 0 0
r 185.160336600 _0_ RTR  --- 14 cbr 50 [0 0 0 0] [energy 828.649948 ei 171.322 es 0.000 et 0.018 er 0.010] ------- [0:0 1:0 32 0] [14] 0 0
s 185.160336600 _0_ RTR  --- 14 cbr 50 [0 0 0 0] [energy 828.649948 ei 171.322 es 0.000 et 0.018 er 0.010] ------- [0:0 1:0 32 0] [14] 0 0
s 185.160671600 _0_ MAC  --- 0 RTS 44 [5de 1 0 0] [energy 828.649948 ei 171.322 es 0.000 et 0.018 er 0.010] 
N -t 185.160672 -n 1 -e 814.838976
r 185.161023848 _1_ MAC  --- 0 RTS 44 [5de 1 0 0] [energy 814.838976 ei 185.133 es 0.000 et 0.010 er 0.019] 
s 185.161033848 _1_ MAC  --- 0 CTS 38 [4a4 0 0 0] [energy 814.838976 ei 185.133 es 0.000 et 0.010 er 0.019] 
N -t 185.161034 -n 0 -e 814.838662
r 185.161338096 _0_ MAC  --- 0 CTS 38 [4a4 0 0 0] [energy 814.838662 ei 185.133 es 0.000 et 0.019 er 0.010] 
s 185.161348096 _0_ MAC  --- 14 cbr 108 [13a 1 0 800] [energy 814.838662 ei 185.133 es 0.000 et 0.019 er 0.010] ------- [0:0 1:0 32 0] [14] 0 0
N -t 185.161348 -n 1 -e 814.837788
r 185.162212344 _1_ MAC  --- 14 cbr 50 [13a 1 0 800] [energy 814.837788 ei 185.133 es 0.000 et 0.010 er 0.020] ------- [0:0 1:0 32 0] [14] 1 0
s 185.162222344 _1_ MAC  --- 0 ACK 38 [0 0 0 0] [energy 814.837788 ei 185.133 es 0.000 et 0.010 er 0.020] 
N -t 185.162223 -n 0 -e 814.837473
r 185.162237344 _1_ AGT  --- 14 cbr 50 [13a 1 0 800] [energy 814.837474 ei 185.133 es 0.000 et 0.010 er 0.020] ------- [0:0 1:0 32 0] [14] 1 0
r 185.162526593 _0_ MAC  --- 0 ACK 38 [0 0 0 0] [energy 814.837473 ei 185.133 es 0.000 et 0.020 er 0.010] 
s 198.056620305 _0_ AGT  --- 15 cbr 50 [0 0 0 0] [energy 814.837473 ei 185.133 es 0.000 et 0.020 er 0.010] ------- [0:0 1:0 32 0] [15] 0 0
r 198.056620305 _0_ RTR  --- 15 cbr 50 [0 0 0 0] [energy 814.837473 ei 185.133 es 0.000 et 0.020 er 0.010] ------- [0:0 1:0 32 0] [15] 0 0
s 198.056620305 _0_ RTR  --- 15 cbr 50 [0 0 0 0] [energy 814.837473 ei 185.133 es 0.000 et 0.020 er 0.010] ------- [0:0 1:0 32 0] [15] 0 0
s 198.056715305 _0_ MAC  --- 0 RTS 44 [5de 1 0 0] [energy 814.837473 ei 185.133 es 0.000 et 0.020 er 0.010] 
N -t 198.056716 -n 1 -e 801.942932
r 198.057067553 _1_ MAC  --- 0 RTS 44 [5de 1 0 0] [energy 801.942932 ei 198.027 es 0.000 et 0.010 er 0.020] 
s 198.057077553 _1_ MAC  --- 0 CTS 38 [4a4 0 0 0] [energy 801.942932 ei 198.027 es 0.000 et 0.010 er 0.020] 
N -t 198.057078 -n 0 -e 801.942618
r 198.057381801 _0_ MAC  --- 0 CTS 38 [4a4 0 0 0] [energy 801.942618 ei 198.027 es 0.000 et 0.020 er 0.010] 
s 198.057391801 _0_ MAC  --- 15 cbr 108 [13a 1 0 800] [energy 801.942618 ei 198.027 es 0.000 et 0.020 er 0.010] ------- [0:0 1:0 32 0] [15] 0 0
N -t 198.057392 -n 1 -e 801.941744
r 198.058256049 _1_ MAC  --- 15 cbr 50 [13a 1 0 800] [energy 801.941744 ei 198.027 es 0.000 et 0.010 er 0.021] ------- [0:0 1:0 32 0] [15] 1 0
s 198.058266049 _1_ MAC  --- 0 ACK 38 [0 0 0 0] [energy 801.941744 ei 198.027 es 0.000 et 0.010 er 0.021] 
N -t 198.058266 -n 0 -e 801.941430
r 198.058281049 _1_ AGT  --- 15 cbr 50 [13a 1 0 800] [energy 801.941430 ei 198.027 es 0.000 et 0.011 er 0.021] ------- [0:0 1:0 32 0] [15] 1 0
r 198.058570298 _0_ MAC  --- 0 ACK 38 [0 0 0 0] [energy 801.941430 ei 198.027 es 0.000 et 0.021 er 0.011] 
s 206.368740481 _0_ AGT  --- 16 cbr 50 [0 0 0 0] [energy 801.941430 ei 198.027 es 0.000 et 0.021 er 0.011] ------- [0:0 1:0 32 0] [16] 0 0
r 206.368740481 _0_ RTR  --- 16 cbr 50 [0 0 0 0] [energy 801.941430 ei 198.027 es 0.000 et 0.021 er 0.011] ------- [0:0 1:0 32 0] [16] 0 0
s 206.368740481 _0_ RTR  --- 16 cbr 50 [0 0 0 0] [energy 801.941430 ei 198.027 es 0.000 et 0.021 er 0.011] ------- [0:0 1:0 32 0] [16] 0 0
s 206.369255481 _0_ MAC  --- 0 RTS 44 [5de 1 0 0] [energy 801.941430 ei 198.027 es 0.000 et 0.021 er 0.011] 
N -t 206.369256 -n 1 -e 793.630392
r 206.369607730 _1_ MAC  --- 0 RTS 44 [5de 1 0 0] [energy 793.630392 ei 206.338 es 0.000 et 0.011 er 0.021] 
s 206.369617730 _1_ MAC  --- 0 CTS 38 [4a4 0 0 0] [energy 793.630392 ei 206.338 es 0.000 et 0.011 er 0.021] 
N -t 206.369618 -n 0 -e 793.630078
r 206.369921978 _0_ MAC  --- 0 CTS 38 [4a4 0 0 0] [energy 793.630078 ei 206.338 es 0.000 et 0.021 er 0.011] 
s 206.369931978 _0_ MAC  --- 16 cbr 108 [13a 1 0 800] [energy 793.630078 ei 206.338 es 0.000 et 0.021 er 0.011] ------- [0:0 1:0 32 0] [16] 0 0
N -t 206.369932 -n 1 -e 793.629204
r 206.370796226 _1_ MAC  --- 16 cbr 50 [13a 1 0 800] [energy 793.629204 ei 206.338 es 0.000 et 0.011 er 0.022] ------- [0:0 1:0 32 0] [16] 1 0
s 206.370806226 _1_ MAC  --- 0 ACK 38 [0 0 0 0] [energy 793.629204 ei 206.338 es 0.000 et 0.011 er 0.022] 
N -t 206.370806 -n 0 -e 793.628890
r 206.370821226 _1_ AGT  --- 16 cbr 50 [13a 1 0 800] [energy 793.628890 ei 206.338 es 0.000 et 0.011 er 0.022] ------- [0:0 1:0 32 0] [16] 1 0
r 206.371110474 _0_ MAC  --- 0 ACK 38 [0 0 0 0] [energy 793.628890 ei 206.338 es 0.000 et 0.022 er 0.011] 
s 218.725275731 _0_ AGT  --- 17 cbr 50 [0 0 0 0] [energy 793.628890 ei 206.338 es 0.000 et 0.022 er 0.011] ------- [0:0 1:0 32 0] [17] 0 0
r 218.725275731 _0_ RTR  --- 17 cbr 50 [0 0 0 0] [energy 793.628890 ei 206.338 es 0.000 et 0.022 er 0.011] ------- [0:0 1:0 32 0] [17] 0 0
s 218.725275731 _0_ RTR  --- 17 cbr 50 [0 0 0 0] [energy 793.628890 ei 206.338 es 0.000 et 0.022 er 0.011] ------- [0:0 1:0 32 0] [17] 0 0
s 218.725490731 _0_ MAC  --- 0 RTS 44 [5de 1 0 0] [energy 793.628890 ei 206.338 es 0.000 et 0.022 er 0.011] 
N -t 218.725491 -n 1 -e 781.274157
r 218.725842980 _1_ MAC  --- 0 RTS 44 [5de 1 0 0] [energy 781.274157 ei 218.692 es 0.000 et 0.011 er 0.022] 
s 218.725852980 _1_ MAC  --- 0 CTS 38 [4a4 0 0 0] [energy 781.274157 ei 218.692 es 0.000 et 0.011 er 0.022] 
N -t 218.725853 -n 0 -e 781.273843
r 218.726157228 _0_ MAC  --- 0 CTS 38 [4a4 0 0 0] [energy 781.273843 ei 218.692 es 0.000 et 0.022 er 0.012] 
s 218.726167228 _0_ MAC  --- 17 cbr 108 [13a 1 0 800] [energy 781.273843 ei 218.692 es 0.000 et 0.022 er 0.012] ------- [0:0 1:0 32 0] [17] 0 0
N -t 218.726167 -n 1 -e 781.272969