s 17.208000000 _1_ MAC  --- 0 SYNC 9 [0.13 1 1] [energy 1000.000000 ei 0.000 es 0.000 et 0.000 er 0.000] 
N -t 17.208000 -n 0 -e 982.789000
s 18.654000000 _0_ MAC  --- 0 SYNC 9 [0.12 0 1] [energy 982.789000 ei 17.208 es 0.000 et 0.000 er 0.003] 
N -t 18.654000 -n 1 -e 981.343000
s 20.072000000 _1_ MAC  --- 0 SYNC 9 [0.13 1 0] [energy 981.343000 ei 18.651 es 0.000 et 0.003 er 0.003] 
N -t 20.072000 -n 0 -e 979.925000
s 32.979000000 _0_ MAC  --- 0 SYNC 9 [0.12 0 1] [energy 979.925000 ei 20.066 es 0.000 et 0.003 er 0.006] 
N -t 32.979000 -n 1 -e 967.018000
N -t 33.102200 -n 0 -e 966.896800
N -t 34.392000 -n 0 -e 966.894510
s 34.420000000 _1_ MAC  --- 0 SYNC 9 [0.11 1 0] [energy 967.018000 ei 32.970 es 0.000 et 0.006 er 0.006] 
N -t 34.420000 -n 0 -e 966.863510
N -t 34.535200 -n 1 -e 965.463800
N -t 34.535200 -n 0 -e 966.750310
N -t 35.825000 -n 1 -e 965.461510
N -t 35.825000 -n 0 -e 966.748020
N -t 35.968200 -n 1 -e 965.317310
N -t 35.968200 -n 0 -e 966.603820
N -t 37.258000 -n 1 -e 965.315020
N -t 37.258000 -n 0 -e 966.601531
N -t 37.401200 -n 1 -e 965.170820
N -t 37.401200 -n 0 -e 966.457331
N -t 38.691000 -n 1 -e 965.168531
N -t 38.691000 -n 0 -e 966.455041
N -t 38.834200 -n 1 -e 965.024331
N -t 38.834200 -n 0 -e 966.310841
N -t 40.124000 -n 1 -e 965.022041
N -t 40.124000 -n 0 -e 966.308551
N -t 40.267200 -n 1 -e 964.877841
N -t 40.267200 -n 0 -e 966.164351
N -t 41.000000 -n 0 -e 966.163618
N -t 41.000000 -n 1 -e 964.877108
s 41.200000000 _0_ AGT  --- 0 cbr 50 [0.00 0 0] [energy 966.163618 ei 33.803 es 0.007 et 0.006 er 0.009] ------- [0:0 1:0 32 0] [0] 0 0
N -t 41.557000 -n 1 -e 964.875551
N -t 41.557000 -n 0 -e 966.162061
s 41.656200000 _0_ MAC  --- 0 ARP 28 [0.00 -1 0] [energy 966.162061 ei 33.803 es 0.008 et 0.006 er 0.009] ------- [REQUEST 0/0 0/1]
N -t 41.656200 -n 1 -e 964.733351
r 41.699200000 _1_ MAC  --- 0 ARP 28 [0.00 -1 0] [energy 964.733351 ei 35.192 es 0.006 et 0.009 er 0.049] ------- [REQUEST 0/0 0/1]
N -t 41.700200 -n 1 -e 964.731351
N -t 41.700200 -n 0 -e 966.017861
s 42.633000000 _0_ AGT  --- 1 cbr 50 [0.00 0 0] [energy 966.017861 ei 33.903 es 0.008 et 0.049 er 0.009] ------- [0:0 1:0 32 0] [1] 0 0
D 42.633000000 _0_ IFQ  ARP 0 cbr 50 [0.00 0 0] [energy 966.017861 ei 33.903 es 0.008 et 0.049 er 0.009] ------- [0:0 1:0 32 0] [0] 0 0
N -t 42.990000 -n 1 -e 964.729061
N -t 42.990000 -n 0 -e 966.015571
s 43.067200000 _0_ MAC  --- 0 ARP 28 [0.00 -1 0] [energy 966.015571 ei 33.903 es 0.009 et 0.049 er 0.009] ------- [REQUEST 0/0 0/1]
N -t 43.067200 -n 1 -e 964.608861
r 43.110200000 _1_ MAC  --- 0 ARP 28 [0.00 -1 0] [energy 964.608861 ei 35.270 es 0.008 et 0.009 er 0.092] ------- [REQUEST 0/0 0/1]
N -t 43.133200 -n 1 -e 964.584861
N -t 43.133200 -n 0 -e 965.871371
s 44.066000000 _0_ AGT  --- 2 cbr 50 [0.00 0 0] [energy 965.871371 ei 34.004 es 0.009 et 0.092 er 0.009] ------- [0:0 1:0 32 0] [2] 0 0
D 44.066000000 _0_ IFQ  ARP 1 cbr 50 [0.00 0 0] [energy 965.871371 ei 34.004 es 0.009 et 0.092 er 0.009] ------- [0:0 1:0 32 0] [1] 0 0
N -t 44.423000 -n 1 -e 964.582571
N -t 44.423000 -n 0 -e 965.869082
s 44.497200000 _1_ MAC  --- 0 RTS 10 [0.07 0 1] [energy 964.582571 ei 35.293 es 0.009 et 0.009 er 0.092] 
N -t 44.497200 -n 0 -e 965.783882
s 44.508200000 _0_ MAC  --- 0 CTS 10 [0.06 1 0] [energy 965.783882 ei 34.078 es 0.010 et 0.092 er 0.020] 
N -t 44.508200 -n 1 -e 964.486371
s 44.519200000 _1_ MAC  --- 0 ARP 28 [0.01 0 1] [energy 964.486371 ei 35.368 es 0.009 et 0.020 er 0.103] ------- [REPLY 1/1 0/0]
N -t 44.519200 -n 0 -e 965.729882
s 44.562200000 _0_ MAC  --- 0 ACK 10 [0.00 1 0] [energy 965.729882 ei 34.078 es 0.010 et 0.103 er 0.063] 
r 44.562200000 _0_ MAC  --- 0 ARP 28 [0.01 0 1] [energy 965.718882 ei 34.078 es 0.010 et 0.114 er 0.063] ------- [REPLY 1/1 0/0]
N -t 44.562200 -n 1 -e 964.432371
s 45.499000000 _0_ AGT  --- 3 cbr 50 [0.00 0 0] [energy 965.718882 ei 34.078 es 0.010 et 0.114 er 0.063] ------- [0:0 1:0 32 0] [3] 0 0
D 45.499025000 _0_ IFQ  --- 3 cbr 50 [0.00 1 0] [energy 965.718882 ei 34.078 es 0.010 et 0.114 er 0.063] ------- [0:0 1:0 32 0] [3] 0 0
s 45.968200000 _1_ MAC  --- 0 RTS 10 [0.07 0 1] [energy 964.432371 ei 35.368 es 0.009 et 0.063 er 0.114] 
N -t 45.968200 -n 0 -e 964.312882
s 45.979200000 _0_ MAC  --- 0 CTS 10 [0.06 1 0] [energy 964.312882 ei 35.473 es 0.010 et 0.114 er 0.074] 
N -t 45.979200 -n 1 -e 963.015371
s 45.990200000 _1_ MAC  --- 0 ARP 28 [0.01 0 1] [energy 963.015371 ei 36.763 es 0.009 et 0.074 er 0.125] ------- [REPLY 1/1 0/0]
N -t 45.990200 -n 0 -e 964.258882
s 46.033200000 _0_ MAC  --- 0 ACK 10 [0.00 1 0] [energy 964.258882 ei 35.473 es 0.010 et 0.125 er 0.117] 
r 46.033200000 _0_ MAC  --- 0 ARP 28 [0.01 0 1] [energy 964.247882 ei 35.473 es 0.010 et 0.136 er 0.117] ------- [REPLY 1/1 0/0]
N -t 46.033200 -n 1 -e 962.961371
s 46.932000000 _0_ AGT  --- 4 cbr 50 [0.00 0 0] [energy 964.247882 ei 35.473 es 0.010 et 0.136 er 0.117] ------- [0:0 1:0 32 0] [4] 0 0
D 46.932025000 _0_ IFQ  --- 4 cbr 50 [0.00 1 0] [energy 964.247882 ei 35.473 es 0.010 et 0.136 er 0.117] ------- [0:0 1:0 32 0] [4] 0 0
s 47.319000000 _0_ MAC  --- 0 SYNC 9 [0.11 0 1] [energy 964.247882 ei 35.473 es 0.010 et 0.136 er 0.117] 
N -t 47.319000 -n 1 -e 961.683571
s 47.361200000 _0_ MAC  --- 0 ARP 28 [0.00 -1 0] [energy 962.970082 ei 36.748 es 0.010 et 0.139 er 0.117] ------- [REQUEST 0/0 0/1]
N -t 47.361200 -n 1 -e 961.601371
r 47.404200000 _1_ MAC  --- 0 ARP 28 [0.00 -1 0] [energy 961.601371 ei 38.077 es 0.009 et 0.117 er 0.182] ------- [REQUEST 0/0 0/1]
N -t 47.432200 -n 0 -e 962.858882
N -t 47.432200 -n 1 -e 961.572371
s 48.365000000 _0_ AGT  --- 5 cbr 50 [0.00 0 0] [energy 962.858882 ei 36.815 es 0.010 et 0.182 er 0.117] ------- [0:0 1:0 32 0] [5] 0 0
N -t 48.722000 -n 0 -e 962.856592
N -t 48.722000 -n 1 -e 961.570082
s 48.747000000 _1_ MAC  --- 0 SYNC 9 [0.12 1 0] [energy 961.570082 ei 38.105 es 0.010 et 0.117 er 0.182] 
N -t 48.747000 -n 0 -e 962.828592
s 48.802200000 _1_ MAC  --- 0 RTS 10 [0.07 0 1] [energy 961.542082 ei 38.130 es 0.010 et 0.120 er 0.182] 
N -t 48.802200 -n 0 -e 962.765392
s 48.813200000 _0_ MAC  --- 0 CTS 10 [0.06 1 0] [energy 962.765392 ei 36.892 es 0.012 et 0.182 er 0.131] 
N -t 48.813200 -n 1 -e 961.467882
s 48.824200000 _1_ MAC  --- 0 ARP 28 [0.01 0 1] [energy 961.467882 ei 38.182 es 0.010 et 0.131 er 0.193] ------- [REPLY 1/1 0/0]
N -t 48.824200 -n 0 -e 962.711392
s 48.867200000 _0_ MAC  --- 0 ACK 10 [0.00 1 0] [energy 962.711392 ei 36.892 es 0.012 et 0.193 er 0.174] 
r 48.867200000 _0_ MAC  --- 0 ARP 28 [0.01 0 1] [energy 962.700392 ei 36.892 es 0.012 et 0.204 er 0.174] ------- [REPLY 1/1 0/0]
N -t 48.867200 -n 1 -e 961.413882
s 50.234200000 _0_ MAC  --- 0 RTS 10 [0.07 1 0] [energy 962.700392 ei 36.892 es 0.012 et 0.204 er 0.174] 
N -t 50.234200 -n 1 -e 960.046882
s 50.245200000 _1_ MAC  --- 0 CTS 10 [0.06 0 1] [energy 960.046882 ei 39.538 es 0.010 et 0.174 er 0.215] 
N -t 50.245200 -n 0 -e 961.322392
s 50.256200000 _0_ MAC  --- 2 cbr 50 [0.01 1 0] [energy 961.322392 ei 38.248 es 0.012 et 0.215 er 0.185] ------- [0:0 1:0 32 0] [2] 0 0
N -t 50.256200 -n 1 -e 959.992882
s 50.299200000 _1_ MAC  --- 0 ACK 10 [0.00 0 1] [energy 959.992882 ei 39.538 es 0.010 et 0.185 er 0.258] 
r 50.299200000 _1_ MAC  --- 2 cbr 50 [0.01 1 0] [energy 959.981882 ei 39.538 es 0.010 et 0.196 er 0.258] ------- [0:0 1:0 32 0] [2] 0 0
N -t 50.299200 -n 0 -e 961.268392
r 50.299225000 _1_ AGT  --- 2 cbr 50 [0.01 1 0] [energy 959.981882 ei 39.538 es 0.010 et 0.196 er 0.258] ------- [0:0 1:0 32 0] [2] 0 0
s 51.689200000 _0_ MAC  --- 0 RTS 10 [0.07 1 0] [energy 961.268392 ei 38.248 es 0.012 et 0.258 er 0.196] 
N -t 51.689200 -n 1 -e 958.591882
s 51.700200000 _1_ MAC  --- 0 CTS 10 [0.06 0 1] [energy 958.591882 ei 40.917 es 0.010 et 0.196 er 0.269] 
N -t 51.700200 -n 0 -e 959.867392
s 51.711200000 _0_ MAC  --- 5 cbr 50 [0.01 1 0] [energy 959.867392 ei 39.627 es 0.012 et 0.269 er 0.207] ------- [0:0 1:0 32 0] [5] 0 0
N -t 51.711200 -n 1 -e 958.537882
s 51.754200000 _1_ MAC  --- 0 ACK 10 [0.00 0 1] [energy 958.537882 ei 40.917 es 0.010 et 0.207 er 0.312] 
r 51.754200000 _1_ MAC  --- 5 cbr 50 [0.01 1 0] [energy 958.526882 ei 40.917 es 0.010 et 0.218 er 0.312] ------- [0:0 1:0 32 0] [5] 0 0
N -t 51.754200 -n 0 -e 959.813392
r 51.754225000 _1_ AGT  --- 5 cbr 50 [0.01 1 0] [energy 958.526882 ei 40.917 es 0.010 et 0.218 er 0.312] ------- [0:0 1:0 32 0] [5] 0 0
N -t 53.164200 -n 1 -e 957.126882
N -t 53.164200 -n 0 -e 958.413392
N -t 54.454000 -n 1 -e 957.124592
N -t 54.454000 -n 0 -e 958.411102
N -t 54.597200 -n 1 -e 956.980392
N -t 54.597200 -n 0 -e 958.266902
N -t 55.887000 -n 1 -e 956.978102
N -t 55.887000 -n 0 -e 958.264612
N -t 56.030200 -n 1 -e 956.833902
N -t 56.030200 -n 0 -e 958.120412
N -t 57.320000 -n 1 -e 956.831612
N -t 57.320000 -n 0 -e 958.118122
N -t 57.463200 -n 1 -e 956.687412
N -t 57.463200 -n 0 -e 957.973922
N -t 58.753000 -n 1 -e 956.685122
N -t 58.753000 -n 0 -e 957.971633
N -t 58.896200 -n 1 -e 956.540922
N -t 58.896200 -n 0 -e 957.827433
N -t 60.186000 -n 1 -e 956.538633
N -t 60.186000 -n 0 -e 957.825143
N -t 60.329200 -n 1 -e 956.394433
N -t 60.329200 -n 0 -e 957.680943
N -t 61.000000 -n 0 -e 957.680272
N -t 61.000000 -n 1 -e 956.393762
N -t 61.619000 -n 1 -e 956.392143
N -t 61.619000 -n 0 -e 957.678653
s 61.653000000 _0_ MAC  --- 0 SYNC 9 [0.11 0 1] [energy 957.678653 ei 41.742 es 0.019 et 0.312 er 0.218] 
N -t 61.653000 -n 1 -e 956.355143
N -t 61.762200 -n 0 -e 957.534453
N -t 61.762200 -n 1 -e 956.247943
N -t 63.052000 -n 0 -e 957.532163
N -t 63.052000 -n 1 -e 956.245653
s 63.073000000 _1_ MAC  --- 0 SYNC 9 [0.12 1 0] [energy 956.245653 ei 43.172 es 0.019 et 0.218 er 0.315] 
N -t 63.073000 -n 0 -e 957.508163
N -t 63.195200 -n 1 -e 956.101453
N -t 63.195200 -n 0 -e 957.387963
N -t 64.485000 -n 1 -e 956.099163
N -t 64.485000 -n 0 -e 957.385673
N -t 64.628200 -n 1 -e 955.954963
N -t 64.628200 -n 0 -e 957.241473
N -t 65.918000 -n 1 -e 955.952673
N -t 65.918000 -n 0 -e 957.239184
N -t 66.061200 -n 1 -e 955.808473
N -t 66.061200 -n 0 -e 957.094984
N -t 67.351000 -n 1 -e 955.806184
N -t 67.351000 -n 0 -e 957.092694
N -t 67.494200 -n 1 -e 955.661984
N -t 67.494200 -n 0 -e 956.948494
N -t 68.784000 -n 1 -e 955.659694
N -t 68.784000 -n 0 -e 956.946204
N -t 68.927200 -n 1 -e 955.515494
N -t 68.927200 -n 0 -e 956.802004
N -t 70.217000 -n 1 -e 955.513204
N -t 70.217000 -n 0 -e 956.799714
N -t 70.360200 -n 1 -e 955.369004
N -t 70.360200 -n 0 -e 956.655514
N -t 71.000000 -n 0 -e 956.654874
N -t 71.000000 -n 1 -e 955.368364
N -t 71.650000 -n 1 -e 955.366714
N -t 71.650000 -n 0 -e 956.653224
N -t 71.793200 -n 1 -e 955.222514
N -t 71.793200 -n 0 -e 956.509024
N -t 73.083000 -n 1 -e 955.220224
N -t 73.083000 -n 0 -e 956.506735
N -t 73.226200 -n 1 -e 955.076024
N -t 73.226200 -n 0 -e 956.362535
N -t 74.516000 -n 1 -e 955.073735
N -t 74.516000 -n 0 -e 956.360245
N -t 74.659200 -n 1 -e 954.929535
N -t 74.659200 -n 0 -e 956.216045
N -t 75.949000 -n 1 -e 954.927245
N -t 75.949000 -n 0 -e 956.213755
s 75.967000000 _0_ MAC  --- 0 SYNC 9 [0.12 0 1] [energy 956.213755 ei 43.168 es 0.032 et 0.315 er 0.221] 
N -t 75.967000 -n 1 -e 954.906245
N -t 76.092200 -n 0 -e 956.069555
N -t 76.092200 -n 1 -e 954.783045
N -t 77.382000 -n 0 -e 956.067265
N -t 77.382000 -n 1 -e 954.780755
s 77.396000000 _1_ MAC  --- 0 SYNC 9 [0.13 1 0] [energy 954.780755 ei 44.598 es 0.032 et 0.221 er 0.318] 
N -t 77.396000 -n 0 -e 956.050265
N -t 77.525200 -n 1 -e 954.636555
N -t 77.525200 -n 0 -e 955.923065
N -t 78.815000 -n 1 -e 954.634265
N -t 78.815000 -n 0 -e 955.920775
N -t 78.958200 -n 1 -e 954.490065
N -t 78.958200 -n 0 -e 955.776575
N -t 80.248000 -n 1 -e 954.487775
N -t 80.248000 -n 0 -e 955.774286
N -t 80.391200 -n 1 -e 954.343575
N -t 80.391200 -n 0 -e 955.630086
N -t 81.000000 -n 0 -e 955.629477
N -t 81.000000 -n 1 -e 954.342967
N -t 81.681000 -n 1 -e 954.341286
N -t 81.681000 -n 0 -e 955.627796
N -t 81.824200 -n 1 -e 954.197086
N -t 81.824200 -n 0 -e 955.483596
N -t 83.114000 -n 1 -e 954.194796
N -t 83.114000 -n 0 -e 955.481306
N -t 83.257200 -n 1 -e 954.050596
N -t 83.257200 -n 0 -e 955.337106
N -t 84.547000 -n 1 -e 954.048306
N -t 84.547000 -n 0 -e 955.334816
N -t 84.690200 -n 1 -e 953.904106
N -t 84.690200 -n 0 -e 955.190616
N -t 85.980000 -n 1 -e 953.901816
N -t 85.980000 -n 0 -e 955.188326
N -t 86.123200 -n 1 -e 953.757616
N -t 86.123200 -n 0 -e 955.044126
N -t 87.413000 -n 1 -e 953.755326
N -t 87.413000 -n 0 -e 955.041837
N -t 87.556200 -n 1 -e 953.611126
N -t 87.556200 -n 0 -e 954.897637
N -t 88.846000 -n 1 -e 953.608837
N -t 88.846000 -n 0 -e 954.895347
N -t 88.989200 -n 1 -e 953.464637
N -t 88.989200 -n 0 -e 954.751147
N -t 90.279000 -n 1 -e 953.462347
N -t 90.279000 -n 0 -e 954.748857
s 90.289000000 _0_ MAC  --- 0 SYNC 9 [0.13 0 1] [energy 954.748857 ei 44.594 es 0.045 et 0.318 er 0.224] 
N -t 90.289000 -n 1 -e 953.449347
N -t 90.422200 -n 0 -e 954.604657
N -t 90.422200 -n 1 -e 953.318147
N -t 91.000000 -n 0 -e 954.604079
N -t 91.000000 -n 1 -e 953.317569
N -t 91.712000 -n 0 -e 954.602367
N -t 91.712000 -n 1 -e 953.315857
s 91.737000000 _1_ MAC  --- 0 SYNC 9 [0.12 1 0] [energy 953.315857 ei 46.024 es 0.045 et 0.224 er 0.321] 
N -t 91.737000 -n 0 -e 954.574367
N -t 91.855200 -n 1 -e 953.171657
N -t 91.855200 -n 0 -e 954.458167
N -t 93.145000 -n 1 -e 953.169367
N -t 93.145000 -n 0 -e 954.455877
N -t 93.288200 -n 1 -e 953.025167
N -t 93.288200 -n 0 -e 954.311677
N -t 94.578000 -n 1 -e 953.022877
N -t 94.578000 -n 0 -e 954.309388
N -t 94.721200 -n 1 -e 952.878677
N -t 94.721200 -n 0 -e 954.165188
N -t 96.011000 -n 1 -e 952.876388
N -t 96.011000 -n 0 -e 954.162898
N -t 96.154200 -n 1 -e 952.732188
N -t 96.154200 -n 0 -e 954.018698
N -t 97.444000 -n 1 -e 952.729898
N -t 97.444000 -n 0 -e 954.016408
N -t 97.587200 -n 1 -e 952.585698
N -t 97.587200 -n 0 -e 953.872208
N -t 98.877000 -n 1 -e 952.583408
N -t 98.877000 -n 0 -e 953.869918
N -t 99.020200 -n 1 -e 952.439208
N -t 99.020200 -n 0 -e 953.725718
N -t 100.310000 -n 1 -e 952.436918
N -t 100.310000 -n 0 -e 953.723428
N -t 100.453200 -n 1 -e 952.292718
N -t 100.453200 -n 0 -e 953.579228
N -t 101.000000 -n 0 -e 953.578682
N -t 101.000000 -n 1 -e 952.292171
N -t 101.743000 -n 1 -e 952.290428
N -t 101.743000 -n 0 -e 953.576939
N -t 101.886200 -n 1 -e 952.146228
N -t 101.886200 -n 0 -e 953.432739
N -t 103.176000 -n 1 -e 952.143939
N -t 103.176000 -n 0 -e 953.430449
N -t 103.319200 -n 1 -e 951.999739
N -t 103.319200 -n 0 -e 953.286249
N -t 104.609000 -n 1 -e 951.997449
N -t 104.609000 -n 0 -e 953.283959
s 104.620000000 _0_ MAC  --- 0 SYNC 9 [0.13 0 1] [energy 953.283959 ei 46.020 es 0.058 et 0.321 er 0.227] 
N -t 104.620000 -n 1 -e 951.983449
N -t 104.752200 -n 0 -e 953.139759
N -t 104.752200 -n 1 -e 951.853249
N -t 106.042000 -n 0 -e 953.137469
N -t 106.042000 -n 1 -e 951.850959
s 106.064000000 _1_ MAC  --- 0 SYNC 9 [0.12 1 0] [energy 951.850959 ei 47.450 es 0.058 et 0.227 er 0.324] 
N -t 106.064000 -n 0 -e 953.112469
N -t 106.185200 -n 1 -e 951.706759
N -t 106.185200 -n 0 -e 952.993269
N -t 107.475000 -n 1 -e 951.704469
N -t 107.475000 -n 0 -e 952.990979
N -t 107.618200 -n 1 -e 951.560269
N -t 107.618200 -n 0 -e 952.846779
N -t 108.908000 -n 1 -e 951.557979
N -t 108.908000 -n 0 -e 952.844490
N -t 109.051200 -n 1 -e 951.413779
N -t 109.051200 -n 0 -e 952.700290
N -t 110.341000 -n 1 -e 951.411490
N -t 110.341000 -n 0 -e 952.698000
N -t 110.484200 -n 1 -e 951.267290
N -t 110.484200 -n 0 -e 952.553800
N -t 111.000000 -n 0 -e 952.553284
N -t 111.000000 -n 1 -e 951.266774
N -t 111.774000 -n 1 -e 951.265000
N -t 111.774000 -n 0 -e 952.551510
N -t 111.917200 -n 1 -e 951.120800
N -t 111.917200 -n 0 -e 952.407310
N -t 113.207000 -n 1 -e 951.118510
N -t 113.207000 -n 0 -e 952.405020
N -t 113.350200 -n 1 -e 950.974310
N -t 113.350200 -n 0 -e 952.260820
N -t 114.640000 -n 1 -e 950.972020
N -t 114.640000 -n 0 -e 952.258530
N -t 114.783200 -n 1 -e 950.827820
N -t 114.783200 -n 0 -e 952.114330
N -t 116.073000 -n 1 -e 950.825530
N -t 116.073000 -n 0 -e 952.112041
N -t 116.216200 -n 1 -e 950.681330
N -t 116.216200 -n 0 -e 951.967841
N -t 117.506000 -n 1 -e 950.679041
N -t 117.506000 -n 0 -e 951.965551
N -t 117.649200 -n 1 -e 950.534841
N -t 117.649200 -n 0 -e 951.821351
N -t 118.939000 -n 1 -e 950.532551
N -t 118.939000 -n 0 -e 951.819061
s 118.964000000 _0_ MAC  --- 0 SYNC 9 [0.12 0 1] [energy 951.819061 ei 47.446 es 0.071 et 0.324 er 0.230] 
N -t 118.964000 -n 1 -e 950.504551
N -t 119.082200 -n 0 -e 951.674861
N -t 119.082200 -n 1 -e 950.388351
N -t 120.372000 -n 0 -e 951.672571
N -t 120.372000 -n 1 -e 950.386061
s 120.405000000 _1_ MAC  --- 0 SYNC 9 [0.11 1 0] [energy 950.386061 ei 48.876 es 0.071 et 0.230 er 0.327] 
N -t 120.405000 -n 0 -e 951.636571
N -t 120.515200 -n 1 -e 950.241861
N -t 120.515200 -n 0 -e 951.528371
N -t 121.000000 -n 0 -e 951.527886
N -t 121.000000 -n 1 -e 950.241376
N -t 121.805000 -n 1 -e 950.239571
N -t 121.805000 -n 0 -e 951.526081
N -t 121.948200 -n 1 -e 950.095371
N -t 121.948200 -n 0 -e 951.381881
N -t 123.238000 -n 1 -e 950.093081
N -t 123.238000 -n 0 -e 951.379592
N -t 123.381200 -n 1 -e 949.948881
N -t 123.381200 -n 0 -e 951.235392
N -t 124.671000 -n 1 -e 949.946592
N -t 124.671000 -n 0 -e 951.233102
N -t 124.814200 -n 1 -e 949.802392
N -t 124.814200 -n 0 -e 951.088902
N -t 126.104000 -n 1 -e 949.800102
N -t 126.104000 -n 0 -e 951.086612
N -t 126.247200 -n 1 -e 949.655902
N -t 126.247200 -n 0 -e 950.942412
N -t 127.537000 -n 1 -e 949.653612
N -t 127.537000 -n 0 -e 950.940122
N -t 127.680200 -n 1 -e 949.509412
N -t 127.680200 -n 0 -e 950.795922
N -t 128.970000 -n 1 -e 949.507122
N -t 128.970000 -n 0 -e 950.793632
N -t 129.113200 -n 1 -e 949.362922
N -t 129.113200 -n 0 -e 950.649432
N -t 130.403000 -n 1 -e 949.360632
N -t 130.403000 -n 0 -e 950.647143
N -t 130.546200 -n 1 -e 949.216432
N -t 130.546200 -n 0 -e 950.502943
N -t 131.000000 -n 0 -e 950.502489
N -t 131.000000 -n 1 -e 949.215979
N -t 131.836000 -n 1 -e 949.214143
N -t 131.836000 -n 0 -e 950.500653
N -t 131.979200 -n 1 -e 949.069943
N -t 131.979200 -n 0 -e 950.356453
N -t 133.269000 -n 1 -e 949.067653
N -t 133.269000 -n 0 -e 950.354163
s 133.289000000 _0_ MAC  --- 0 SYNC 9 [0.12 0 1] [energy 950.354163 ei 48.872 es 0.084 et 0.327 er 0.233] 
N -t 133.289000 -n 1 -e 949.044653
N -t 133.412200 -n 1 -e 948.923453
N -t 133.412200 -n 0 -e 950.209963
N -t 134.702000 -n 1 -e 948.921163
N -t 134.702000 -n 0 -e 950.207673
s 134.716000000 _1_ MAC  --- 0 SYNC 9 [0.13 1 0] [energy 948.921163 ei 50.302 es 0.084 et 0.233 er 0.330] 
N -t 134.716000 -n 0 -e 950.190673
N -t 134.845200 -n 0 -e 950.063473
N -t 134.845200 -n 1 -e 948.776963
N -t 136.135000 -n 0 -e 950.061183
N -t 136.135000 -n 1 -e 948.774673
N -t 136.278200 -n 0 -e 949.916983
N -t 136.278200 -n 1 -e 948.630473
N -t 137.568000 -n 0 -e 949.914694
N -t 137.568000 -n 1 -e 948.628183
N -t 137.711200 -n 0 -e 949.770494
N -t 137.711200 -n 1 -e 948.483983
N -t 139.001000 -n 0 -e 949.768204
N -t 139.001000 -n 1 -e 948.481694
N -t 139.144200 -n 0 -e 949.624004
N -t 139.144200 -n 1 -e 948.337494
N -t 140.434000 -n 0 -e 949.621714
N -t 140.434000 -n 1 -e 948.335204
N -t 140.577200 -n 0 -e 949.477514
N -t 140.577200 -n 1 -e 948.191004
N -t 141.000000 -n 0 -e 949.477091
N -t 141.000000 -n 1 -e 948.190581
N -t 141.867000 -n 0 -e 949.475224
N -t 141.867000 -n 1 -e 948.188714
N -t 142.010200 -n 0 -e 949.331024
N -t 142.010200 -n 1 -e 948.044514
N -t 143.300000 -n 0 -e 949.328734
N -t 143.300000 -n 1 -e 948.042224
N -t 143.443200 -n 0 -e 949.184534
N -t 143.443200 -n 1 -e 947.898024
N -t 144.733000 -n 0 -e 949.182245
N -t 144.733000 -n 1 -e 947.895734
N -t 144.876200 -n 0 -e 949.038045
N -t 144.876200 -n 1 -e 947.751534
N -t 146.166000 -n 0 -e 949.035755
N -t 146.166000 -n 1 -e 947.749245
N -t 146.309200 -n 0 -e 948.891555
N -t 146.309200 -n 1 -e 947.605045
N -t 147.599000 -n 0 -e 948.889265
N -t 147.599000 -n 1 -e 947.602755
s 147.619000000 _0_ MAC  --- 0 SYNC 9 [0.12 0 1] [energy 948.889265 ei 50.298 es 0.097 et 0.330 er 0.236] 
N -t 147.619000 -n 1 -e 947.579755
N -t 147.742200 -n 1 -e 947.458555
N -t 147.742200 -n 0 -e 948.745065
N -t 149.032000 -n 1 -e 947.456265
N -t 149.032000 -n 0 -e 948.742775
s 149.059000000 _1_ MAC  --- 0 SYNC 9 [0.11 1 0] [energy 947.456265 ei 51.728 es 0.097 et 0.236 er 0.333] 
N -t 149.059000 -n 0 -e 948.712775
N -t 149.175200 -n 0 -e 948.598575
N -t 149.175200 -n 1 -e 947.312065
s 149.175200000 _0_ AGT  --- 6 cbr 50 [0.00 0 0] [energy 948.598575 ei 50.578 es 0.098 et 0.333 er 0.239] ------- [0:0 1:0 32 0] [6] 0 0
N -t 150.465000 -n 0 -e 948.596285
N -t 150.465000 -n 1 -e 947.309775
s 150.576200000 _0_ MAC  --- 0 RTS 10 [0.07 1 0] [energy 948.596285 ei 50.578 es 0.099 et 0.333 er 0.239] 
N -t 150.576200 -n 1 -e 947.187575
s 150.587200000 _1_ MAC  --- 0 CTS 10 [0.06 0 1] [energy 947.187575 ei 51.979 es 0.098 et 0.239 er 0.344] 
N -t 150.587200 -n 0 -e 948.463085
s 150.598200000 _0_ MAC  --- 6 cbr 50 [0.01 1 0] [energy 948.463085 ei 50.690 es 0.099 et 0.344 er 0.250] ------- [0:0 1:0 32 0] [6] 0 0
N -t 150.598200 -n 1 -e 947.133575
s 150.608200000 _0_ AGT  --- 7 cbr 50 [0.00 0 0] [energy 948.420085 ei 50.690 es 0.099 et 0.387 er 0.250] ------- [0:0 1:0 32 0] [7] 0 0
s 150.641200000 _1_ MAC  --- 0 ACK 10 [0.00 0 1] [energy 947.133575 ei 51.979 es 0.098 et 0.250 er 0.387] 
r 150.641200000 _1_ MAC  --- 6 cbr 50 [0.01 1 0] [energy 947.122575 ei 51.979 es 0.098 et 0.261 er 0.387] ------- [0:0 1:0 32 0] [6] 0 0
N -t 150.641200 -n 0 -e 948.409085
r 150.641225000 _1_ AGT  --- 6 cbr 50 [0.01 1 0] [energy 947.122575 ei 51.979 es 0.098 et 0.261 er 0.387] ------- [0:0 1:0 32 0] [6] 0 0
s 151.996200000 _0_ MAC  --- 0 RTS 10 [0.07 1 0] [energy 948.409085 ei 50.690 es 0.099 et 0.387 er 0.261] 
N -t 151.996200 -n 1 -e 945.767575
s 152.007200000 _1_ MAC  --- 0 CTS 10 [0.06 0 1] [energy 945.767575 ei 53.323 es 0.098 et 0.261 er 0.398] 
N -t 152.007200 -n 0 -e 947.043085
s 152.018200000 _0_ MAC  --- 7 cbr 50 [0.01 1 0] [energy 947.043085 ei 52.034 es 0.099 et 0.398 er 0.272] ------- [0:0 1:0 32 0] [7] 0 0
N -t 152.018200 -n 1 -e 945.713575
s 152.041200000 _0_ AGT  --- 8 cbr 50 [0.00 0 0] [energy 947.000085 ei 52.034 es 0.099 et 0.441 er 0.272] ------- [0:0 1:0 32 0] [8] 0 0
s 152.061200000 _1_ MAC  --- 0 ACK 10 [0.00 0 1] [energy 945.713575 ei 53.323 es 0.098 et 0.272 er 0.441] 
r 152.061200000 _1_ MAC  --- 7 cbr 50 [0.01 1 0] [energy 945.702575 ei 53.323 es 0.098 et 0.283 er 0.441] ------- [0:0 1:0 32 0] [7] 0 0
N -t 152.061200 -n 0 -e 946.989085
r 152.061225000 _1_ AGT  --- 7 cbr 50 [0.01 1 0] [energy 945.702575 ei 53.323 es 0.098 et 0.283 er 0.441] ------- [0:0 1:0 32 0] [7] 0 0
s 153.412200000 _0_ MAC  --- 0 RTS 10 [0.07 1 0] [energy 946.989085 ei 52.034 es 0.099 et 0.441 er 0.283] 
N -t 153.412200 -n 1 -e 944.351575
s 153.423200000 _1_ MAC  --- 0 CTS 10 [0.06 0 1] [energy 944.351575 ei 54.663 es 0.098 et 0.283 er 0.452] 
N -t 153.423200 -n 0 -e 945.627085
N -t 153.474200 -n 0 -e 945.586085
s 153.474200000 _0_ AGT  --- 9 cbr 50 [0.00 0 0] [energy 945.586085 ei 53.414 es 0.099 et 0.452 er 0.294] ------- [0:0 1:0 32 0] [9] 0 0
N -t 154.764000 -n 0 -e 945.583796
s 154.840200000 _0_ MAC  --- 0 RTS 10 [0.07 1 0] [energy 945.583796 ei 53.414 es 0.101 et 0.452 er 0.294] 
N -t 154.840200 -n 1 -e 942.923575
s 154.851200000 _1_ MAC  --- 0 CTS 10 [0.06 0 1] [energy 942.923575 ei 56.069 es 0.098 et 0.294 er 0.463] 
N -t 154.851200 -n 0 -e 945.485596
s 154.862200000 _0_ MAC  --- 8 cbr 50 [0.01 1 0] [energy 945.485596 ei 53.490 es 0.101 et 0.463 er 0.305] ------- [0:0 1:0 32 0] [8] 0 0
N -t 154.862200 -n 1 -e 942.869575
s 154.905200000 _1_ MAC  --- 0 ACK 10 [0.00 0 1] [energy 942.869575 ei 56.069 es 0.098 et 0.305 er 0.506] 
r 154.905200000 _1_ MAC  --- 8 cbr 50 [0.01 1 0] [energy 942.858575 ei 56.069 es 0.098 et 0.316 er 0.506] ------- [0:0 1:0 32 0] [8] 0 0
N -t 154.905200 -n 0 -e 945.431596
r 154.905225000 _1_ AGT  --- 8 cbr 50 [0.01 1 0] [energy 942.858575 ei 56.069 es 0.098 et 0.316 er 0.506] ------- [0:0 1:0 32 0] [8] 0 0
s 154.907200000 _0_ AGT  --- 10 cbr 50 [0.00 0 0] [energy 945.431596 ei 53.490 es 0.101 et 0.506 er 0.316] ------- [0:0 1:0 32 0] [10] 0 0
D 154.907225000 _0_ IFQ  --- 10 cbr 50 [0.00 1 0] [energy 945.431596 ei 53.490 es 0.101 et 0.506 er 0.316] ------- [0:0 1:0 32 0] [10] 0 0
s 156.319200000 _0_ MAC  --- 0 RTS 10 [0.07 1 0] [energy 945.431596 ei 53.490 es 0.101 et 0.506 er 0.316] 
N -t 156.319200 -n 1 -e 941.444575
s 156.330200000 _1_ MAC  --- 0 CTS 10 [0.06 0 1] [energy 941.444575 ei 57.472 es 0.098 et 0.316 er 0.517] 
N -t 156.330200 -n 0 -e 944.006596
s 156.340200000 _0_ AGT  --- 11 cbr 50 [0.00 0 0] [energy 944.006596 ei 54.893 es 0.101 et 0.517 er 0.327] ------- [0:0 1:0 32 0] [11] 0 0
s 157.701200000 _0_ MAC  --- 0 RTS 10 [0.07 1 0] [energy 944.006596 ei 54.893 es 0.101 et 0.517 er 0.327] 
N -t 157.701200 -n 1 -e 940.062575
s 157.712200000 _1_ MAC  --- 0 CTS 10 [0.06 0 1] [energy 940.062575 ei 58.832 es 0.098 et 0.327 er 0.528] 
N -t 157.712200 -n 0 -e 942.624596
s 157.723200000 _0_ MAC  --- 9 cbr 50 [0.01 1 0] [energy 942.624596 ei 56.253 es 0.101 et 0.528 er 0.338] ------- [0:0 1:0 32 0] [9] 0 0
N -t 157.723200 -n 1 -e 940.008575
s 157.766200000 _1_ MAC  --- 0 ACK 10 [0.00 0 1] [energy 940.008575 ei 58.832 es 0.098 et 0.338 er 0.571] 
r 157.766200000 _1_ MAC  --- 9 cbr 50 [0.01 1 0] [energy 939.997575 ei 58.832 es 0.098 et 0.349 er 0.571] ------- [0:0 1:0 32 0] [9] 0 0
N -t 157.766200 -n 0 -e 942.570596
r 157.766225000 _1_ AGT  --- 9 cbr 50 [0.01 1 0] [energy 939.997575 ei 58.832 es 0.098 et 0.349 er 0.571] ------- [0:0 1:0 32 0] [9] 0 0
s 157.773200000 _0_ AGT  --- 12 cbr 50 [0.00 0 0] [energy 942.570596 ei 56.253 es 0.101 et 0.571 er 0.349] ------- [0:0 1:0 32 0] [12] 0 0
D 157.773225000 _0_ IFQ  --- 12 cbr 50 [0.00 1 0] [energy 942.570596 ei 56.253 es 0.101 et 0.571 er 0.349] ------- [0:0 1:0 32 0] [12] 0 0
s 159.178200000 _0_ MAC  --- 0 RTS 10 [0.07 1 0] [energy 942.570596 ei 56.253 es 0.101 et 0.571 er 0.349] 
N -t 159.178200 -n 1 -e 938.585575
s 159.189200000 _1_ MAC  --- 0 CTS 10 [0.06 0 1] [energy 938.585575 ei 60.233 es 0.098 et 0.349 er 0.582] 
N -t 159.189200 -n 0 -e 941.147596
s 159.200200000 _0_ MAC  --- 11 cbr 50 [0.01 1 0] [energy 941.147596 ei 57.654 es 0.101 et 0.582 er 0.360] ------- [0:0 1:0 32 0] [11] 0 0
N -t 159.200200 -n 1 -e 938.531575
s 159.206200000 _0_ AGT  --- 13 cbr 50 [0.00 0 0] [energy 941.104596 ei 57.654 es 0.101 et 0.625 er 0.360] ------- [0:0 1:0 32 0] [13] 0 0
s 159.243200000 _1_ MAC  --- 0 ACK 10 [0.00 0 1] [energy 938.531575 ei 60.233 es 0.098 et 0.360 er 0.625] 
r 159.243200000 _1_ MAC  --- 11 cbr 50 [0.01 1 0] [energy 938.520575 ei 60.233 es 0.098 et 0.371 er 0.625] ------- [0:0 1:0 32 0] [11] 0 0
N -t 159.243200 -n 0 -e 941.093596
r 159.243225000 _1_ AGT  --- 11 cbr 50 [0.01 1 0] [energy 938.520575 ei 60.233 es 0.098 et 0.371 er 0.625] ------- [0:0 1:0 32 0] [11] 0 0
s 160.567200000 _0_ MAC  --- 0 RTS 10 [0.07 1 0] [energy 941.093596 ei 57.654 es 0.101 et 0.625 er 0.371] 
N -t 160.567200 -n 1 -e 937.196575
s 160.578200000 _1_ MAC  --- 0 CTS 10 [0.06 0 1] [energy 937.196575 ei 61.546 es 0.098 et 0.371 er 0.636] 
N -t 160.578200 -n 0 -e 939.758596
s 160.589200000 _0_ MAC  --- 13 cbr 50 [0.01 1 0] [energy 939.758596 ei 58.967 es 0.101 et 0.636 er 0.382] ------- [0:0 1:0 32 0] [13] 0 0
N -t 160.589200 -n 1 -e 937.142575
s 160.632200000 _1_ MAC  --- 0 ACK 10 [0.00 0 1] [energy 937.142575 ei 61.546 es 0.098 et 0.382 er 0.679] 
r 160.632200000 _1_ MAC  --- 13 cbr 50 [0.01 1 0] [energy 937.131575 ei 61.546 es 0.098 et 0.393 er 0.679] ------- [0:0 1:0 32 0] [13] 0 0
N -t 160.632200 -n 0 -e 939.704596
r 160.632225000 _1_ AGT  --- 13 cbr 50 [0.01 1 0] [energy 937.131575 ei 61.546 es 0.098 et 0.393 er 0.679] ------- [0:0 1:0 32 0] [13] 0 0
s 160.639200000 _0_ AGT  --- 14 cbr 50 [0.00 0 0] [energy 939.704596 ei 58.967 es 0.101 et 0.679 er 0.393] ------- [0:0 1:0 32 0] [14] 0 0
s 161.960000000 _0_ MAC  --- 0 SYNC 9 [0.11 0 1] [energy 939.704596 ei 58.967 es 0.101 et 0.679 er 0.393] 
N -t 161.960000 -n 1 -e 935.811775
s 162.022200000 _0_ MAC  --- 0 RTS 10 [0.07 1 0] [energy 938.384796 ei 60.284 es 0.101 et 0.682 er 0.393] 
N -t 162.022200 -n 1 -e 935.741575
s 162.033200000 _1_ MAC  --- 0 CTS 10 [0.06 0 1] [energy 935.741575 ei 62.922 es 0.098 et 0.393 er 0.693] 
N -t 162.033200 -n 0 -e 938.303596
s 162.044200000 _0_ MAC  --- 14 cbr 50 [0.01 1 0] [energy 938.303596 ei 60.343 es 0.101 et 0.693 er 0.404] ------- [0:0 1:0 32 0] [14] 0 0
N -t 162.044200 -n 1 -e 935.687575
s 162.072200000 _0_ AGT  --- 15 cbr 50 [0.00 0 0] [energy 938.260596 ei 60.343 es 0.101 et 0.736 er 0.404] ------- [0:0 1:0 32 0] [15] 0 0
s 162.087200000 _1_ MAC  --- 0 ACK 10 [0.00 0 1] [energy 935.687575 ei 62.922 es 0.098 et 0.404 er 0.736] 
r 162.087200000 _1_ MAC  --- 14 cbr 50 [0.01 1 0] [energy 935.676575 ei 62.922 es 0.098 et 0.415 er 0.736] ------- [0:0 1:0 32 0] [14] 0 0
N -t 162.087200 -n 0 -e 938.249596
r 162.087225000 _1_ AGT  --- 14 cbr 50 [0.01 1 0] [energy 935.676575 ei 62.922 es 0.098 et 0.415 er 0.736] ------- [0:0 1:0 32 0] [14] 0 0
s 163.391000000 _1_ MAC  --- 0 SYNC 9 [0.11 1 0] [energy 935.676575 ei 62.922 es 0.098 et 0.415 er 0.736] 
N -t 163.391000 -n 0 -e 936.953796
s 163.475200000 _0_ MAC  --- 0 RTS 10 [0.07 1 0] [energy 936.953796 ei 61.636 es 0.101 et 0.736 er 0.418] 
N -t 163.475200 -n 1 -e 934.288575
s 163.486200000 _1_ MAC  --- 0 CTS 10 [0.06 0 1] [energy 934.288575 ei 64.296 es 0.098 et 0.418 er 0.747] 
N -t 163.486200 -n 0 -e 936.850596
s 163.497200000 _0_ MAC  --- 15 cbr 50 [0.01 1 0] [energy 936.850596 ei 61.717 es 0.101 et 0.747 er 0.429] ------- [0:0 1:0 32 0] [15] 0 0
N -t 163.497200 -n 1 -e 934.234575
s 163.505200000 _0_ AGT  --- 16 cbr 50 [0.00 0 0] [energy 936.807596 ei 61.717 es 0.101 et 0.790 er 0.429] ------- [0:0 1:0 32 0] [16] 0 0
s 163.540200000 _1_ MAC  --- 0 ACK 10 [0.00 0 1] [energy 934.234575 ei 64.296 es 0.098 et 0.429 er 0.790] 
r 163.540200000 _1_ MAC  --- 15 cbr 50 [0.01 1 0] [energy 934.223575 ei 64.296 es 0.098 et 0.440 er 0.790] ------- [0:0 1:0 32 0] [15] 0 0
N -t 163.540200 -n 0 -e 936.796596