s 17.208000000 _1_ MAC  --- 0 SYNC 9 [0.13 1 1] [energy 2000.000000 ei 0.000 es 0.000 et 0.000 er 0.000] 
N -t 17.208000 -n 3 -e 1982.788400
N -t 17.208000 -n 2 -e 1982.788400
N -t 17.208000 -n 4 -e 1982.788400
N -t 17.208000 -n 0 -e 1982.788400
s 18.641000207 _0_ MAC  --- 0 SYNC 9 [0.13 0 1] [energy 1982.788400 ei 17.208 es 0.000 et 0.000 er 0.004] 
N -t 18.641000 -n 1 -e 1981.328400
N -t 18.641000 -n 3 -e 1981.354800
N -t 18.641001 -n 4 -e 1981.354799
N -t 18.641001 -n 2 -e 1981.354799
s 20.080000188 _3_ MAC  --- 0 SYNC 9 [0.12 3 1] [energy 1981.354800 ei 18.638 es 0.000 et 0.000 er 0.007] 
N -t 20.080000 -n 1 -e 1979.888800
N -t 20.080000 -n 0 -e 1979.888800
N -t 20.080000 -n 2 -e 1979.915200
N -t 20.080001 -n 4 -e 1979.915199
s 21.514000204 _4_ MAC  --- 0 SYNC 9 [0.12 4 1] [energy 1979.915199 ei 20.074 es 0.000 et 0.000 er 0.011] 
N -t 21.514000 -n 1 -e 1978.454200
N -t 21.514000 -n 2 -e 1978.480600
N -t 21.514001 -n 0 -e 1978.454199
N -t 21.514001 -n 3 -e 1978.454199
s 22.953000189 _2_ MAC  --- 0 SYNC 9 [0.12 2 1] [energy 1978.480600 ei 21.505 es 0.000 et 0.000 er 0.014] 
N -t 22.953000 -n 1 -e 1977.014600
N -t 22.953000 -n 4 -e 1977.014600
N -t 22.953000 -n 3 -e 1977.014600
N -t 22.953001 -n 0 -e 1977.014599
s 24.376000413 _1_ MAC  --- 0 SYNC 9 [0.13 1 0] [energy 1977.014600 ei 22.941 es 0.000 et 0.030 er 0.014] 
N -t 24.376001 -n 3 -e 1975.590999
N -t 24.376001 -n 2 -e 1975.590999
N -t 24.376001 -n 4 -e 1975.590999
N -t 24.376001 -n 0 -e 1975.590999
s 32.972000620 _0_ MAC  --- 0 SYNC 9 [0.13 0 1] [energy 1975.590999 ei 24.361 es 0.000 et 0.030 er 0.018] 
N -t 32.972001 -n 1 -e 1966.967999
N -t 32.972001 -n 3 -e 1966.994399
N -t 32.972001 -n 4 -e 1966.994399
N -t 32.972001 -n 2 -e 1966.994399
N -t 33.102201 -n 0 -e 1966.840699
N -t 34.392001 -n 0 -e 1966.839310
s 34.411000882 _3_ MAC  --- 0 SYNC 9 [0.12 3 1] [energy 1966.994399 ei 32.954 es 0.000 et 0.030 er 0.022] 
N -t 34.411001 -n 1 -e 1965.528399
N -t 34.411001 -n 0 -e 1966.816709
N -t 34.411001 -n 2 -e 1965.554799
N -t 34.411001 -n 4 -e 1965.554799
N -t 34.535201 -n 3 -e 1965.407099
N -t 34.535201 -n 0 -e 1966.695409
N -t 35.825001 -n 3 -e 1965.405709
N -t 35.825001 -n 0 -e 1966.694019
s 35.851001273 _4_ MAC  --- 0 SYNC 9 [0.11 4 1] [energy 1965.554799 ei 34.390 es 0.000 et 0.030 er 0.025] 
N -t 35.851001 -n 1 -e 1964.087799
N -t 35.851002 -n 2 -e 1964.114198
N -t 35.851002 -n 0 -e 1966.664419
N -t 35.851002 -n 3 -e 1965.376109
N -t 35.968201 -n 4 -e 1963.973499
N -t 35.968202 -n 0 -e 1966.550119
N -t 35.968202 -n 3 -e 1965.261809
N -t 37.258001 -n 4 -e 1963.972109
N -t 37.258002 -n 0 -e 1966.548729
N -t 37.258002 -n 3 -e 1965.260419
s 37.268001515 _2_ MAC  --- 0 SYNC 9 [0.13 2 1] [energy 1964.114198 ei 35.827 es 0.000 et 0.030 er 0.029] 
N -t 37.268002 -n 1 -e 1962.670198
N -t 37.268002 -n 4 -e 1963.958508
N -t 37.268002 -n 3 -e 1965.246819
N -t 37.268002 -n 0 -e 1966.535129
N -t 37.401202 -n 2 -e 1962.539898
N -t 37.401202 -n 4 -e 1963.828208
N -t 37.401202 -n 3 -e 1965.116519
N -t 37.401202 -n 0 -e 1966.404829
N -t 38.691002 -n 2 -e 1962.538509
N -t 38.691002 -n 4 -e 1963.826819
N -t 38.691002 -n 3 -e 1965.115129
N -t 38.691002 -n 0 -e 1966.403439
s 38.725001703 _1_ MAC  --- 0 SYNC 9 [0.11 1 0] [energy 1962.670198 ei 37.241 es 0.000 et 0.060 er 0.029] 
N -t 38.725002 -n 3 -e 1965.077529
N -t 38.725002 -n 2 -e 1962.500908
N -t 38.725002 -n 4 -e 1963.789218
N -t 38.725002 -n 0 -e 1966.365839
N -t 38.834202 -n 1 -e 1961.079898
N -t 38.834202 -n 3 -e 1964.971229
N -t 38.834202 -n 2 -e 1962.394608
N -t 38.834202 -n 4 -e 1963.682918
N -t 38.834202 -n 0 -e 1966.259539
N -t 40.124002 -n 1 -e 1961.078508
N -t 40.124002 -n 3 -e 1964.969839
N -t 40.124002 -n 2 -e 1962.393219
N -t 40.124002 -n 4 -e 1963.681529
N -t 40.124002 -n 0 -e 1966.258149
N -t 40.267202 -n 1 -e 1960.935208
N -t 40.267202 -n 3 -e 1964.826539
N -t 40.267202 -n 2 -e 1962.249919
N -t 40.267202 -n 4 -e 1963.538229
N -t 40.267202 -n 0 -e 1966.114849
N -t 41.000000 -n 0 -e 1966.114116
N -t 41.000000 -n 1 -e 1960.934476
N -t 41.000000 -n 2 -e 1962.249186
N -t 41.000000 -n 3 -e 1964.825806
N -t 41.000000 -n 4 -e 1963.537496
s 41.200000000 _0_ AGT  --- 0 cbr 50 [0.00 0 0] [energy 1966.114116 ei 33.785 es 0.007 et 0.060 er 0.032] ------- [0:0 2:0 32 0] [0] 0 0
N -t 41.557002 -n 1 -e 1960.933819
N -t 41.557002 -n 3 -e 1964.825149
N -t 41.557002 -n 2 -e 1962.248529
N -t 41.557002 -n 4 -e 1963.536839
N -t 41.557002 -n 0 -e 1966.113459
s 41.678201910 _0_ MAC  --- 0 ARP 28 [0.00 -1 0] [energy 1966.113459 ei 33.785 es 0.008 et 0.060 er 0.032] ------- [REQUEST 0/0 0/2]
N -t 41.678202 -n 1 -e 1960.761018
N -t 41.678202 -n 3 -e 1964.652349
N -t 41.678202 -n 4 -e 1963.364039
N -t 41.678202 -n 2 -e 1962.075728
r 41.721202116 _1_ MAC  --- 0 ARP 28 [0.00 -1 0] [energy 1960.761018 ei 39.066 es 0.003 et 0.090 er 0.080] ------- [REQUEST 0/0 0/2]
r 41.721202172 _3_ MAC  --- 0 ARP 28 [0.00 -1 0] [energy 1964.652349 ei 35.196 es 0.006 et 0.060 er 0.084] ------- [REQUEST 0/0 0/2]
r 41.721202214 _4_ MAC  --- 0 ARP 28 [0.00 -1 0] [energy 1963.364039 ei 36.486 es 0.005 et 0.060 er 0.084] ------- [REQUEST 0/0 0/2]
r 41.721202304 _2_ MAC  --- 0 ARP 28 [0.00 -1 0] [energy 1962.075728 ei 37.776 es 0.004 et 0.060 er 0.084] ------- [REQUEST 0/0 0/2]
s 41.988341169 _0_ AGT  --- 1 cbr 50 [0.00 0 0] [energy 1965.562259 ei 33.906 es 0.008 et 0.490 er 0.032] ------- [0:0 2:0 32 0] [1] 0 0
D 41.988341169 _0_ IFQ  ARP 0 cbr 50 [0.00 0 0] [energy 1965.562259 ei 33.906 es 0.008 et 0.490 er 0.032] ------- [0:0 2:0 32 0] [0] 0 0
s 43.084201910 _0_ MAC  --- 0 ARP 28 [0.00 -1 0] [energy 1965.562259 ei 33.906 es 0.008 et 0.490 er 0.032] ------- [REQUEST 0/0 0/2]
N -t 43.084202 -n 1 -e 1959.346418
N -t 43.084202 -n 3 -e 1963.237749
N -t 43.084202 -n 4 -e 1961.949439
N -t 43.084202 -n 2 -e 1960.661128
r 43.127202116 _1_ MAC  --- 0 ARP 28 [0.00 -1 0] [energy 1959.346418 ei 40.429 es 0.003 et 0.090 er 0.132] ------- [REQUEST 0/0 0/2]
r 43.127202172 _3_ MAC  --- 0 ARP 28 [0.00 -1 0] [energy 1963.237749 ei 36.559 es 0.006 et 0.060 er 0.136] ------- [REQUEST 0/0 0/2]
r 43.127202214 _4_ MAC  --- 0 ARP 28 [0.00 -1 0] [energy 1961.949439 ei 37.849 es 0.005 et 0.060 er 0.136] ------- [REQUEST 0/0 0/2]
r 43.127202304 _2_ MAC  --- 0 ARP 28 [0.00 -1 0] [energy 1960.661128 ei 39.139 es 0.004 et 0.060 er 0.136] ------- [REQUEST 0/0 0/2]
N -t 43.133202 -n 1 -e 1959.340319
N -t 43.133202 -n 3 -e 1963.231649
N -t 43.133202 -n 2 -e 1960.655029
N -t 43.133202 -n 4 -e 1961.943339
N -t 43.133202 -n 0 -e 1963.763159
s 43.871876591 _0_ AGT  --- 2 cbr 50 [0.00 0 0] [energy 1963.763159 ei 35.275 es 0.008 et 0.920 er 0.032] ------- [0:0 2:0 32 0] [2] 0 0
D 43.871876591 _0_ IFQ  ARP 1 cbr 50 [0.00 0 0] [energy 1963.763159 ei 35.275 es 0.008 et 0.920 er 0.032] ------- [0:0 2:0 32 0] [1] 0 0
N -t 44.423002 -n 1 -e 1959.338929
N -t 44.423002 -n 3 -e 1963.230259
N -t 44.423002 -n 2 -e 1960.653639
N -t 44.423002 -n 4 -e 1961.941949
N -t 44.423002 -n 0 -e 1963.761769
s 44.521201910 _0_ MAC  --- 0 ARP 28 [0.00 -1 0] [energy 1963.761769 ei 35.275 es 0.009 et 0.920 er 0.032] ------- [REQUEST 0/0 0/2]
N -t 44.521202 -n 1 -e 1959.189128
N -t 44.521202 -n 3 -e 1963.080459
N -t 44.521202 -n 4 -e 1961.792149
N -t 44.521202 -n 2 -e 1960.503838
r 44.564202116 _1_ MAC  --- 0 ARP 28 [0.00 -1 0] [energy 1959.189128 ei 40.533 es 0.004 et 0.090 er 0.184] ------- [REQUEST 0/0 0/2]
r 44.564202172 _3_ MAC  --- 0 ARP 28 [0.00 -1 0] [energy 1963.080459 ei 36.663 es 0.008 et 0.060 er 0.187] ------- [REQUEST 0/0 0/2]
r 44.564202214 _4_ MAC  --- 0 ARP 28 [0.00 -1 0] [energy 1961.792149 ei 37.953 es 0.006 et 0.060 er 0.187] ------- [REQUEST 0/0 0/2]
r 44.564202304 _2_ MAC  --- 0 ARP 28 [0.00 -1 0] [energy 1960.503838 ei 39.243 es 0.005 et 0.060 er 0.187] ------- [REQUEST 0/0 0/2]
N -t 44.566202 -n 1 -e 1959.187029
N -t 44.566202 -n 3 -e 1963.078359
N -t 44.566202 -n 2 -e 1960.501739
N -t 44.566202 -n 4 -e 1961.790049
N -t 44.566202 -n 0 -e 1963.231469
s 45.098608536 _0_ AGT  --- 3 cbr 50 [0.00 0 0] [energy 1963.231469 ei 35.376 es 0.009 et 1.350 er 0.032] ------- [0:0 2:0 32 0] [3] 0 0
D 45.098608536 _0_ IFQ  ARP 2 cbr 50 [0.00 0 0] [energy 1963.231469 ei 35.376 es 0.009 et 1.350 er 0.032] ------- [0:0 2:0 32 0] [2] 0 0
D 45.098608536 _0_ IFQ  ARP 3 cbr 50 [0.00 0 0] [energy 1963.231469 ei 35.376 es 0.009 et 1.350 er 0.032] ------- [0:0 2:0 32 0] [3] 0 0
N -t 45.856002 -n 1 -e 1959.185639
N -t 45.856002 -n 3 -e 1963.076970
N -t 45.856002 -n 2 -e 1960.500349
N -t 45.856002 -n 4 -e 1961.788659
N -t 45.856002 -n 0 -e 1963.230080
s 45.921201892 _2_ MAC  --- 0 RTS 10 [0.07 0 2] [energy 1960.500349 ei 39.245 es 0.006 et 0.060 er 0.187] 
N -t 45.921202 -n 1 -e 1959.107239
N -t 45.921202 -n 4 -e 1961.710259
N -t 45.921202 -n 3 -e 1962.998569
N -t 45.921202 -n 0 -e 1963.151679
N -t 45.999202 -n 1 -e 1959.040139
N -t 45.999202 -n 3 -e 1962.931470
N -t 45.999202 -n 2 -e 1960.258049
N -t 45.999202 -n 4 -e 1961.643159
N -t 45.999202 -n 0 -e 1963.084580
s 46.597702821 _0_ AGT  --- 4 cbr 50 [0.00 0 0] [energy 1963.084580 ei 35.508 es 0.010 et 1.350 er 0.046] ------- [0:0 2:0 32 0] [4] 0 0
N -t 47.289002 -n 1 -e 1959.038749
N -t 47.289002 -n 3 -e 1962.930080
N -t 47.289002 -n 2 -e 1960.256659
N -t 47.289002 -n 4 -e 1961.641769
N -t 47.289002 -n 0 -e 1963.083190
s 47.319001910 _0_ MAC  --- 0 SYNC 9 [0.11 0 1] [energy 1963.083190 ei 35.508 es 0.012 et 1.350 er 0.046] 
N -t 47.319002 -n 1 -e 1959.005149
N -t 47.319002 -n 3 -e 1962.896479
N -t 47.319002 -n 4 -e 1961.608169
N -t 47.319002 -n 2 -e 1960.223059
s 47.361202304 _2_ MAC  --- 0 RTS 10 [0.07 0 2] [energy 1960.223059 ei 39.407 es 0.008 et 0.170 er 0.191] 
N -t 47.361202 -n 1 -e 1958.952749
N -t 47.361203 -n 4 -e 1961.555769
N -t 47.361203 -n 3 -e 1962.844079
N -t 47.361203 -n 0 -e 1962.970789
N -t 47.432202 -n 1 -e 1958.892649
N -t 47.432202 -n 3 -e 1962.783979
N -t 47.432202 -n 4 -e 1961.495669
N -t 47.432202 -n 2 -e 1960.013759
s 48.621011696 _0_ AGT  --- 5 cbr 50 [0.00 0 0] [energy 1962.970789 ei 35.577 es 0.012 et 1.380 er 0.059] ------- [0:0 2:0 32 0] [5] 0 0
D 48.621011696 _0_ IFQ  ARP 4 cbr 50 [0.00 0 0] [energy 1962.970789 ei 35.577 es 0.012 et 1.380 er 0.059] ------- [0:0 2:0 32 0] [4] 0 0
N -t 48.722002 -n 1 -e 1958.891259
N -t 48.722002 -n 3 -e 1962.782590
N -t 48.722002 -n 4 -e 1961.494279
N -t 48.722002 -n 2 -e 1960.012369
s 48.733002172 _3_ MAC  --- 0 SYNC 9 [0.13 3 1] [energy 1962.782590 ei 36.927 es 0.012 et 0.060 er 0.217] 
N -t 48.733002 -n 1 -e 1958.876659
N -t 48.733002 -n 0 -e 1961.606389
N -t 48.733002 -n 2 -e 1959.997769
N -t 48.733003 -n 4 -e 1961.479679
s 48.829202471 _2_ MAC  --- 0 RTS 10 [0.07 0 2] [energy 1959.997769 ei 39.517 es 0.009 et 0.280 er 0.194] 
N -t 48.829203 -n 1 -e 1958.770259
N -t 48.829203 -n 4 -e 1961.373279
N -t 48.829203 -n 3 -e 1962.635189
N -t 48.829203 -n 0 -e 1961.499989
N -t 48.865202 -n 3 -e 1962.610090
N -t 48.865202 -n 1 -e 1958.745159
N -t 48.865202 -n 2 -e 1959.769469
N -t 48.865203 -n 4 -e 1961.348179
N -t 50.155002 -n 3 -e 1962.608700
N -t 50.155002 -n 1 -e 1958.743769
N -t 50.155002 -n 2 -e 1959.768079
N -t 50.155003 -n 4 -e 1961.346789
s 50.178002564 _4_ MAC  --- 0 SYNC 9 [0.12 4 1] [energy 1961.346789 ei 38.346 es 0.012 et 0.060 er 0.234] 
N -t 50.178003 -n 1 -e 1958.717169
N -t 50.178003 -n 2 -e 1959.741479
N -t 50.178003 -n 0 -e 1960.158589
N -t 50.178003 -n 3 -e 1962.582099
s 50.260202868 _0_ MAC  --- 0 ARP 28 [0.00 -1 0] [energy 1960.158589 ei 38.369 es 0.012 et 1.380 er 0.079] ------- [REQUEST 0/0 0/2]
N -t 50.260203 -n 1 -e 1958.586368
N -t 50.260203 -n 3 -e 1962.451299
N -t 50.260203 -n 4 -e 1961.162989
N -t 50.260203 -n 2 -e 1959.610678
r 50.303203074 _1_ MAC  --- 0 ARP 28 [0.00 -1 0] [energy 1958.586368 ei 41.028 es 0.009 et 0.090 er 0.286] ------- [REQUEST 0/0 0/2]
r 50.303203130 _3_ MAC  --- 0 ARP 28 [0.00 -1 0] [energy 1962.451299 ei 37.158 es 0.013 et 0.090 er 0.286] ------- [REQUEST 0/0 0/2]
r 50.303203172 _4_ MAC  --- 0 ARP 28 [0.00 -1 0] [energy 1961.162989 ei 38.448 es 0.012 et 0.090 er 0.286] ------- [REQUEST 0/0 0/2]
r 50.303203262 _2_ MAC  --- 0 ARP 28 [0.00 -1 0] [energy 1959.610678 ei 39.738 es 0.010 et 0.390 er 0.250] ------- [REQUEST 0/0 0/2]
s 51.605002805 _2_ MAC  --- 0 SYNC 9 [0.12 2 1] [energy 1959.610678 ei 39.738 es 0.010 et 0.390 er 0.250] 
N -t 51.605003 -n 1 -e 1957.280968
N -t 51.605003 -n 4 -e 1959.857589
N -t 51.605003 -n 3 -e 1961.145899
N -t 51.605003 -n 0 -e 1958.343989
s 51.669203199 _0_ MAC  --- 0 ARP 28 [0.00 -1 0] [energy 1958.343989 ei 39.750 es 0.012 et 1.810 er 0.083] ------- [REQUEST 0/0 0/2]
N -t 51.669203 -n 1 -e 1957.168168
N -t 51.669203 -n 3 -e 1961.033099
N -t 51.669204 -n 4 -e 1959.744788
N -t 51.669204 -n 2 -e 1958.166078
r 51.712203406 _1_ MAC  --- 0 ARP 28 [0.00 -1 0] [energy 1957.168168 ei 42.391 es 0.009 et 0.090 er 0.341] ------- [REQUEST 0/0 0/2]
r 51.712203462 _3_ MAC  --- 0 ARP 28 [0.00 -1 0] [energy 1961.033099 ei 38.521 es 0.013 et 0.090 er 0.341] ------- [REQUEST 0/0 0/2]
r 51.712203503 _4_ MAC  --- 0 ARP 28 [0.00 -1 0] [energy 1959.744788 ei 39.811 es 0.012 et 0.090 er 0.341] ------- [REQUEST 0/0 0/2]
r 51.712203593 _2_ MAC  --- 0 ARP 28 [0.00 -1 0] [energy 1958.166078 ei 41.101 es 0.010 et 0.420 er 0.301] ------- [REQUEST 0/0 0/2]
N -t 51.731203 -n 2 -e 1958.146979
N -t 51.731203 -n 1 -e 1957.149068
N -t 51.731203 -n 4 -e 1959.725689
N -t 51.731203 -n 3 -e 1961.013999
N -t 51.731203 -n 0 -e 1957.833689
N -t 53.021003 -n 2 -e 1958.145589
N -t 53.021003 -n 1 -e 1957.147679
N -t 53.021003 -n 4 -e 1959.724299
N -t 53.021003 -n 3 -e 1961.012609
N -t 53.021003 -n 0 -e 1957.832299
s 53.038002994 _1_ MAC  --- 0 SYNC 9 [0.12 1 0] [energy 1957.147679 ei 42.410 es 0.010 et 0.090 er 0.341] 
N -t 53.038003 -n 3 -e 1960.992009
N -t 53.038003 -n 2 -e 1958.124989
N -t 53.038003 -n 4 -e 1959.703699
N -t 53.038003 -n 0 -e 1957.811699
s 53.144203182 _2_ MAC  --- 0 RTS 10 [0.07 0 2] [energy 1958.124989 ei 41.137 es 0.012 et 0.420 er 0.305] 
N -t 53.144203 -n 1 -e 1956.984278
N -t 53.144203 -n 4 -e 1959.587299
N -t 53.144203 -n 3 -e 1960.875609
N -t 53.144204 -n 0 -e 1957.695298
N -t 53.164203 -n 1 -e 1956.975179
N -t 53.164203 -n 3 -e 1960.866509
N -t 53.164203 -n 4 -e 1959.578199
N -t 53.164203 -n 0 -e 1957.686199
N -t 54.454003 -n 1 -e 1956.973789
N -t 54.454003 -n 3 -e 1960.865119
N -t 54.454003 -n 4 -e 1959.576809
N -t 54.454003 -n 0 -e 1957.684809
s 54.523203182 _2_ MAC  --- 0 RTS 10 [0.07 0 2] [energy 1957.911789 ei 41.240 es 0.012 et 0.530 er 0.305] 
N -t 54.523203 -n 1 -e 1956.891388
N -t 54.523203 -n 4 -e 1959.494409
N -t 54.523203 -n 3 -e 1960.782719
N -t 54.523204 -n 0 -e 1957.602409
N -t 54.597203 -n 1 -e 1956.828289
N -t 54.597203 -n 3 -e 1960.719619
N -t 54.597203 -n 2 -e 1956.370689
N -t 54.597203 -n 4 -e 1959.431309
N -t 54.597203 -n 0 -e 1957.539309
N -t 55.887003 -n 1 -e 1956.826899
N -t 55.887003 -n 3 -e 1960.718229
N -t 55.887003 -n 2 -e 1956.369299
N -t 55.887003 -n 4 -e 1959.429919
N -t 55.887003 -n 0 -e 1957.537919
s 56.013203182 _2_ MAC  --- 0 RTS 10 [0.07 0 2] [energy 1956.369299 ei 42.671 es 0.013 et 0.640 er 0.305] 
N -t 56.013203 -n 1 -e 1956.687499
N -t 56.013203 -n 4 -e 1959.290519
N -t 56.013203 -n 3 -e 1960.578829
N -t 56.013204 -n 0 -e 1957.398519
N -t 56.030203 -n 1 -e 1956.681399
N -t 56.030203 -n 3 -e 1960.572729
N -t 56.030203 -n 4 -e 1959.284419
N -t 56.030203 -n 0 -e 1957.392419
N -t 57.320003 -n 1 -e 1956.680009
N -t 57.320003 -n 3 -e 1960.571340
N -t 57.320003 -n 4 -e 1959.283029
N -t 57.320003 -n 0 -e 1957.391029
s 57.445203182 _2_ MAC  --- 0 RTS 10 [0.07 0 2] [energy 1956.133099 ei 42.797 es 0.013 et 0.750 er 0.305] 
N -t 57.445203 -n 1 -e 1956.541609
N -t 57.445203 -n 4 -e 1959.144629
N -t 57.445203 -n 3 -e 1960.432939
N -t 57.445204 -n 0 -e 1957.252629
N -t 57.463203 -n 1 -e 1956.534509
N -t 57.463203 -n 3 -e 1960.425840
N -t 57.463203 -n 4 -e 1959.137529
N -t 57.463203 -n 0 -e 1957.245529
N -t 58.753003 -n 1 -e 1956.533119
N -t 58.753003 -n 3 -e 1960.424450
N -t 58.753003 -n 4 -e 1959.136140
N -t 58.753003 -n 0 -e 1957.244140
s 58.874203182 _2_ MAC  --- 0 RTS 10 [0.07 0 2] [energy 1954.602099 ei 44.218 es 0.013 et 0.860 er 0.305] 
N -t 58.874203 -n 1 -e 1956.398719
N -t 58.874203 -n 4 -e 1959.001739
N -t 58.874203 -n 3 -e 1960.290050
N -t 58.874204 -n 0 -e 1957.109739
N -t 58.896203 -n 1 -e 1956.387619
N -t 58.896203 -n 3 -e 1960.278950
N -t 58.896203 -n 4 -e 1958.990640
N -t 58.896203 -n 0 -e 1957.098640
N -t 60.186003 -n 1 -e 1956.386230
N -t 60.186003 -n 3 -e 1960.277560
N -t 60.186003 -n 4 -e 1958.989250
N -t 60.186003 -n 0 -e 1957.097250
s 60.281203182 _2_ MAC  --- 0 RTS 10 [0.07 0 2] [energy 1953.074099 ei 45.636 es 0.013 et 0.970 er 0.305] 
N -t 60.281203 -n 1 -e 1956.277829
N -t 60.281203 -n 4 -e 1958.880850
N -t 60.281203 -n 3 -e 1960.169160
N -t 60.281204 -n 0 -e 1956.988849
N -t 60.329203 -n 1 -e 1956.240730
N -t 60.329203 -n 3 -e 1960.132060
N -t 60.329203 -n 2 -e 1951.530999
N -t 60.329203 -n 4 -e 1958.843750
N -t 60.329203 -n 0 -e 1956.951750
N -t 61.000000 -n 0 -e 1956.951079
N -t 61.000000 -n 1 -e 1956.240059
N -t 61.000000 -n 2 -e 1951.530328
N -t 61.000000 -n 3 -e 1960.131389
N -t 61.000000 -n 4 -e 1958.843079
N -t 61.619003 -n 1 -e 1956.239340
N -t 61.619003 -n 3 -e 1960.130670
N -t 61.619003 -n 2 -e 1951.529609
N -t 61.619003 -n 4 -e 1958.842360
N -t 61.619003 -n 0 -e 1956.950360
s 61.645003200 _0_ MAC  --- 0 SYNC 9 [0.11 0 1] [energy 1956.950360 ei 40.620 es 0.021 et 2.240 er 0.166] 
N -t 61.645003 -n 1 -e 1956.209739
N -t 61.645003 -n 3 -e 1960.101070
N -t 61.645004 -n 4 -e 1958.812760
N -t 61.645004 -n 2 -e 1951.500009
s 61.711203594 _2_ MAC  --- 0 RTS 10 [0.07 0 2] [energy 1951.500009 ei 47.095 es 0.014 et 1.080 er 0.308] 
N -t 61.711204 -n 1 -e 1956.133339
N -t 61.711204 -n 4 -e 1958.736359
N -t 61.711204 -n 3 -e 1960.024670
N -t 61.711204 -n 0 -e 1956.817959
N -t 61.762203 -n 0 -e 1956.777860
N -t 61.762203 -n 1 -e 1956.093239
N -t 61.762203 -n 3 -e 1959.984570
N -t 61.762204 -n 4 -e 1958.696260
N -t 61.762204 -n 2 -e 1951.286709
N -t 63.052003 -n 0 -e 1956.776470
N -t 63.052003 -n 1 -e 1956.091850
N -t 63.052003 -n 3 -e 1959.983180
N -t 63.052004 -n 4 -e 1958.694870
N -t 63.052004 -n 2 -e 1951.285319
s 63.090003463 _3_ MAC  --- 0 SYNC 9 [0.10 3 1] [energy 1959.983180 ei 39.460 es 0.023 et 0.090 er 0.440] 
N -t 63.090004 -n 1 -e 1956.050249
N -t 63.090004 -n 0 -e 1956.734870
N -t 63.090004 -n 2 -e 1951.243719
N -t 63.090004 -n 4 -e 1958.653270
s 63.130203762 _2_ MAC  --- 0 RTS 10 [0.07 0 2] [energy 1951.243719 ei 47.236 es 0.015 et 1.190 er 0.312] 
N -t 63.130204 -n 1 -e 1955.999849
N -t 63.130204 -n 4 -e 1958.602869
N -t 63.130204 -n 3 -e 1959.864780
N -t 63.130204 -n 0 -e 1956.684469
N -t 63.195203 -n 3 -e 1959.810680
N -t 63.195204 -n 1 -e 1955.945749
N -t 63.195204 -n 0 -e 1956.630370
N -t 63.195204 -n 2 -e 1951.042419
N -t 63.195204 -n 4 -e 1958.548770
N -t 64.485003 -n 3 -e 1959.809290
N -t 64.485004 -n 1 -e 1955.944360
N -t 64.485004 -n 0 -e 1956.628980
N -t 64.485004 -n 2 -e 1951.041029
N -t 64.485004 -n 4 -e 1958.547380
s 64.518003854 _4_ MAC  --- 0 SYNC 9 [0.11 4 1] [energy 1958.547380 ei 40.879 es 0.023 et 0.090 er 0.457] 
N -t 64.518004 -n 1 -e 1955.907759
N -t 64.518004 -n 2 -e 1951.004429
N -t 64.518004 -n 0 -e 1956.592379
N -t 64.518004 -n 3 -e 1959.772690
s 64.602204095 _2_ MAC  --- 0 RTS 10 [0.07 0 2] [energy 1951.004429 ei 47.361 es 0.017 et 1.300 er 0.316] 
N -t 64.602204 -n 1 -e 1955.813359
N -t 64.602204 -n 4 -e 1958.389979
N -t 64.602204 -n 3 -e 1959.678289
N -t 64.602204 -n 0 -e 1956.497979
N -t 64.628204 -n 4 -e 1958.374880
N -t 64.628204 -n 1 -e 1955.798259
N -t 64.628204 -n 0 -e 1956.482879
N -t 64.628204 -n 3 -e 1959.663190
N -t 65.918004 -n 4 -e 1958.373490
N -t 65.918004 -n 1 -e 1955.796869
N -t 65.918004 -n 0 -e 1956.481490
N -t 65.918004 -n 3 -e 1959.661800
s 65.945004095 _2_ MAC  --- 0 SYNC 9 [0.11 2 1] [energy 1950.813229 ei 47.442 es 0.017 et 1.410 er 0.316] 
N -t 65.945004 -n 1 -e 1955.766269
N -t 65.945004 -n 4 -e 1958.342889
N -t 65.945004 -n 3 -e 1959.631200
N -t 65.945004 -n 0 -e 1956.450889
s 66.021204095 _2_ MAC  --- 0 RTS 10 [0.07 0 2] [energy 1949.451429 ei 48.774 es 0.017 et 1.440 er 0.316] 
N -t 66.021204 -n 1 -e 1955.679869
N -t 66.021204 -n 4 -e 1958.256489
N -t 66.021204 -n 3 -e 1959.544800
N -t 66.021204 -n 0 -e 1956.364489
N -t 66.061204 -n 2 -e 1949.239129
N -t 66.061204 -n 1 -e 1955.650769
N -t 66.061204 -n 4 -e 1958.227389
N -t 66.061204 -n 3 -e 1959.515700
N -t 66.061204 -n 0 -e 1956.335389
N -t 67.351004 -n 2 -e 1949.237739
N -t 67.351004 -n 1 -e 1955.649379
N -t 67.351004 -n 4 -e 1958.226000
N -t 67.351004 -n 3 -e 1959.514310
N -t 67.351004 -n 0 -e 1956.334000
s 67.366004284 _1_ MAC  --- 0 SYNC 9 [0.13 1 0] [energy 1955.649379 ei 43.717 es 0.023 et 0.120 er 0.487] 
N -t 67.366004 -n 3 -e 1959.495710
N -t 67.366004 -n 2 -e 1949.219138
N -t 67.366004 -n 4 -e 1958.207400
N -t 67.366004 -n 0 -e 1956.315400
s 67.418204473 _2_ MAC  --- 0 RTS 10 [0.07 0 2] [energy 1949.219138 ei 48.891 es 0.018 et 1.550 er 0.319] 
N -t 67.418205 -n 1 -e 1955.541979
N -t 67.418205 -n 4 -e 1958.144999
N -t 67.418205 -n 3 -e 1959.433309
N -t 67.418205 -n 0 -e 1956.252999
N -t 67.494204 -n 1 -e 1955.476879
N -t 67.494204 -n 3 -e 1959.368210
N -t 67.494204 -n 2 -e 1948.994838
N -t 67.494204 -n 4 -e 1958.079900
N -t 67.494204 -n 0 -e 1956.187900
N -t 68.784004 -n 1 -e 1955.475490
N -t 68.784004 -n 3 -e 1959.366820
N -t 68.784004 -n 2 -e 1948.993449
N -t 68.784004 -n 4 -e 1958.078510
N -t 68.784004 -n 0 -e 1956.186510
s 68.910204473 _2_ MAC  --- 0 RTS 10 [0.07 0 2] [energy 1948.993449 ei 49.005 es 0.019 et 1.660 er 0.319] 
N -t 68.910205 -n 1 -e 1955.336089
N -t 68.910205 -n 4 -e 1957.939109
N -t 68.910205 -n 3 -e 1959.227420
N -t 68.910205 -n 0 -e 1956.047109
N -t 68.927204 -n 1 -e 1955.329990
N -t 68.927204 -n 3 -e 1959.221320
N -t 68.927204 -n 4 -e 1957.933010
N -t 68.927204 -n 0 -e 1956.041010
N -t 70.217004 -n 1 -e 1955.328600
N -t 70.217004 -n 3 -e 1959.219930
N -t 70.217004 -n 4 -e 1957.931620
N -t 70.217004 -n 0 -e 1956.039620
s 70.300204473 _2_ MAC  --- 0 RTS 10 [0.07 0 2] [energy 1948.757249 ei 49.131 es 0.019 et 1.770 er 0.319] 
N -t 70.300205 -n 1 -e 1955.232199
N -t 70.300205 -n 4 -e 1957.835220
N -t 70.300205 -n 3 -e 1959.123530
N -t 70.300205 -n 0 -e 1955.943220
N -t 70.360204 -n 1 -e 1955.183100
N -t 70.360204 -n 3 -e 1959.074430
N -t 70.360204 -n 2 -e 1947.219149
N -t 70.360204 -n 4 -e 1957.786120
N -t 70.360204 -n 0 -e 1955.894120
N -t 71.000000 -n 0 -e 1955.893480
N -t 71.000000 -n 1 -e 1955.182460
N -t 71.000000 -n 2 -e 1947.218509
N -t 71.000000 -n 3 -e 1959.073790
N -t 71.000000 -n 4 -e 1957.785480
N -t 71.650004 -n 1 -e 1955.181710
N -t 71.650004 -n 3 -e 1959.073040
N -t 71.650004 -n 2 -e 1947.217759
N -t 71.650004 -n 4 -e 1957.784730
N -t 71.650004 -n 0 -e 1955.892730
s 71.732204473 _2_ MAC  --- 0 RTS 10 [0.07 0 2] [energy 1947.217759 ei 50.559 es 0.021 et 1.880 er 0.319] 
N -t 71.732205 -n 1 -e 1955.086310
N -t 71.732205 -n 4 -e 1957.689330
N -t 71.732205 -n 3 -e 1958.977640
N -t 71.732205 -n 0 -e 1955.797330
N -t 71.793204 -n 1 -e 1955.036210
N -t 71.793204 -n 3 -e 1958.927540
N -t 71.793204 -n 2 -e 1946.975459
N -t 71.793204 -n 4 -e 1957.639230
N -t 71.793204 -n 0 -e 1955.747230
N -t 73.083004 -n 1 -e 1955.034820
N -t 73.083004 -n 3 -e 1958.926151
N -t 73.083004 -n 2 -e 1946.974069
N -t 73.083004 -n 4 -e 1957.637840
N -t 73.083004 -n 0 -e 1955.745840
s 73.171204473 _2_ MAC  --- 0 RTS 10 [0.07 0 2] [energy 1946.974069 ei 50.691 es 0.022 et 1.990 er 0.319] 
N -t 73.171205 -n 1 -e 1954.933420
N -t 73.171205 -n 4 -e 1957.536440
N -t 73.171205 -n 3 -e 1958.824750
N -t 73.171205 -n 0 -e 1955.644440
N -t 73.226204 -n 1 -e 1954.889320
N -t 73.226204 -n 3 -e 1958.780651
N -t 73.226204 -n 2 -e 1946.731769
N -t 73.226204 -n 4 -e 1957.492340
N -t 73.226204 -n 0 -e 1955.600340
N -t 74.516004 -n 1 -e 1954.887930
N -t 74.516004 -n 3 -e 1958.779261
N -t 74.516004 -n 2 -e 1946.730379
N -t 74.516004 -n 4 -e 1957.490951
N -t 74.516004 -n 0 -e 1955.598951
s 74.581204473 _2_ MAC  --- 0 RTS 10 [0.07 0 2] [energy 1946.730379 ei 50.824 es 0.023 et 2.100 er 0.319] 
N -t 74.581205 -n 1 -e 1954.809530
N -t 74.581205 -n 4 -e 1957.412550
N -t 74.581205 -n 3 -e 1958.700860
N -t 74.581205 -n 0 -e 1955.520550
N -t 74.659204 -n 1 -e 1954.742430
N -t 74.659204 -n 3 -e 1958.633761
N -t 74.659204 -n 2 -e 1946.488079
N -t 74.659204 -n 4 -e 1957.345451
N -t 74.659204 -n 0 -e 1955.453451
N -t 75.949004 -n 1 -e 1954.741041
N -t 75.949004 -n 3 -e 1958.632371
N -t 75.949004 -n 2 -e 1946.486689
N -t 75.949004 -n 4 -e 1957.344061
N -t 75.949004 -n 0 -e 1955.452061
s 75.987004490 _0_ MAC  --- 0 SYNC 9 [0.10 0 1] [energy 1955.452061 ei 41.927 es 0.034 et 2.270 er 0.312] 
N -t 75.987005 -n 1 -e 1954.699440
N -t 75.987005 -n 3 -e 1958.590771
N -t 75.987005 -n 4 -e 1957.302460
N -t 75.987005 -n 2 -e 1946.445089
s 76.046204885 _2_ MAC  --- 0 RTS 10 [0.07 0 2] [energy 1946.445089 ei 50.994 es 0.025 et 2.210 er 0.323] 
N -t 76.046205 -n 1 -e 1954.630040
N -t 76.046205 -n 4 -e 1957.233060
N -t 76.046205 -n 3 -e 1958.521370
N -t 76.046205 -n 0 -e 1955.314660
N -t 76.092204 -n 0 -e 1955.279561
N -t 76.092205 -n 1 -e 1954.594940
N -t 76.092205 -n 3 -e 1958.486271
N -t 76.092205 -n 4 -e 1957.197960
N -t 76.092205 -n 2 -e 1946.243789
N -t 77.382004 -n 0 -e 1955.278171
N -t 77.382005 -n 1 -e 1954.593550
N -t 77.382005 -n 3 -e 1958.484881
N -t 77.382005 -n 4 -e 1957.196571
N -t 77.382005 -n 2 -e 1946.242399
s 77.393004753 _3_ MAC  --- 0 SYNC 9 [0.13 3 1] [energy 1958.484881 ei 40.767 es 0.036 et 0.120 er 0.587] 
N -t 77.393005 -n 1 -e 1954.578950
N -t 77.393005 -n 0 -e 1955.263570
N -t 77.393005 -n 2 -e 1946.227799
N -t 77.393005 -n 4 -e 1957.181970
s 77.474205052 _2_ MAC  --- 0 RTS 10 [0.07 0 2] [energy 1946.227799 ei 51.096 es 0.026 et 2.320 er 0.326] 
N -t 77.474205 -n 1 -e 1954.487550
N -t 77.474205 -n 4 -e 1957.090570
N -t 77.474205 -n 3 -e 1958.352480
N -t 77.474205 -n 0 -e 1955.172170
N -t 77.525205 -n 3 -e 1958.312381
N -t 77.525205 -n 1 -e 1954.447450
N -t 77.525205 -n 0 -e 1955.132070
N -t 77.525205 -n 2 -e 1945.999499
N -t 77.525205 -n 4 -e 1957.050470
N -t 78.815005 -n 3 -e 1958.310991
N -t 78.815005 -n 1 -e 1954.446060
N -t 78.815005 -n 0 -e 1955.130681
N -t 78.815005 -n 2 -e 1945.998109
N -t 78.815005 -n 4 -e 1957.049080
s 78.853005144 _4_ MAC  --- 0 SYNC 9 [0.10 4 1] [energy 1957.049080 ei 42.186 es 0.036 et 0.120 er 0.604] 
N -t 78.853005 -n 1 -e 1954.404460
N -t 78.853005 -n 2 -e 1945.956509
N -t 78.853005 -n 0 -e 1955.089080
N -t 78.853006 -n 3 -e 1958.269390
s 78.930205385 _2_ MAC  --- 0 RTS 10 [0.07 0 2] [energy 1945.956509 ei 51.252 es 0.027 et 2.430 er 0.330] 
N -t 78.930206 -n 1 -e 1954.317060
N -t 78.930206 -n 4 -e 1956.893680
N -t 78.930206 -n 3 -e 1958.181990
N -t 78.930206 -n 0 -e 1955.001680
N -t 78.958205 -n 4 -e 1956.876580
N -t 78.958205 -n 1 -e 1954.299960
N -t 78.958205 -n 0 -e 1954.984580
N -t 78.958206 -n 3 -e 1958.164890
N -t 80.248005 -n 4 -e 1956.875191
N -t 80.248005 -n 1 -e 1954.298570
N -t 80.248005 -n 0 -e 1954.983190
N -t 80.248006 -n 3 -e 1958.163500
s 80.275005385 _2_ MAC  --- 0 SYNC 9 [0.11 2 1] [energy 1945.772309 ei 51.326 es 0.027 et 2.540 er 0.330] 
N -t 80.275006 -n 1 -e 1954.267970
N -t 80.275006 -n 4 -e 1956.844590
N -t 80.275006 -n 3 -e 1958.132900
N -t 80.275006 -n 0 -e 1954.952590
s 80.348205385 _2_ MAC  --- 0 RTS 10 [0.07 0 2] [energy 1944.408509 ei 52.660 es 0.027 et 2.570 er 0.330] 
N -t 80.348206 -n 1 -e 1954.184570
N -t 80.348206 -n 4 -e 1956.761190
N -t 80.348206 -n 3 -e 1958.049500
N -t 80.348206 -n 0 -e 1954.869190
N -t 80.391205 -n 2 -e 1944.196209
N -t 80.391206 -n 1 -e 1954.152470
N -t 80.391206 -n 4 -e 1956.729090
N -t 80.391206 -n 3 -e 1958.017400
N -t 80.391206 -n 0 -e 1954.837090
N -t 81.000000 -n 0 -e 1954.836481
N -t 81.000000 -n 1 -e 1954.151861
N -t 81.000000 -n 2 -e 1944.195600
N -t 81.000000 -n 3 -e 1958.016792
N -t 81.000000 -n 4 -e 1956.728481
N -t 81.681005 -n 2 -e 1944.194819
N -t 81.681006 -n 1 -e 1954.151080
N -t 81.681006 -n 4 -e 1956.727700
N -t 81.681006 -n 3 -e 1958.016011
N -t 81.681006 -n 0 -e 1954.835700
s 81.698005574 _1_ MAC  --- 0 SYNC 9 [0.12 1 0] [energy 1954.151080 ei 45.024 es 0.036 et 0.150 er 0.634] 
N -t 81.698006 -n 3 -e 1957.995410
N -t 81.698006 -n 2 -e 1944.174219
N -t 81.698006 -n 4 -e 1956.707100
N -t 81.698006 -n 0 -e 1954.815100
s 81.797205763 _2_ MAC  --- 0 RTS 10 [0.07 0 2] [energy 1944.174219 ei 52.779 es 0.028 et 2.680 er 0.334] 
N -t 81.797206 -n 1 -e 1953.994680
N -t 81.797206 -n 4 -e 1956.597700
N -t 81.797206 -n 3 -e 1957.886010
N -t 81.797206 -n 0 -e 1954.705700
N -t 81.824206 -n 1 -e 1953.978580
N -t 81.824206 -n 3 -e 1957.869910
N -t 81.824206 -n 4 -e 1956.581600
N -t 81.824206 -n 0 -e 1954.689600
N -t 83.114006 -n 1 -e 1953.977190
N -t 83.114006 -n 3 -e 1957.868521
N -t 83.114006 -n 4 -e 1956.580210
N -t 83.114006 -n 0 -e 1954.688210
s 83.187205763 _2_ MAC  --- 0 RTS 10 [0.07 0 2] [energy 1943.968019 ei 52.876 es 0.028 et 2.790 er 0.334] 
N -t 83.187206 -n 1 -e 1953.890790
N -t 83.187206 -n 4 -e 1956.493810
N -t 83.187206 -n 3 -e 1957.782120
N -t 83.187206 -n 0 -e 1954.601810
N -t 83.257206 -n 1 -e 1953.831690
N -t 83.257206 -n 3 -e 1957.723021
N -t 83.257206 -n 2 -e 1942.419919
N -t 83.257206 -n 4 -e 1956.434710
N -t 83.257206 -n 0 -e 1954.542710
N -t 84.547006 -n 1 -e 1953.830300
N -t 84.547006 -n 3 -e 1957.721631
N -t 84.547006 -n 2 -e 1942.418529
N -t 84.547006 -n 4 -e 1956.433321
N -t 84.547006 -n 0 -e 1954.541321
s 84.650205763 _2_ MAC  --- 0 RTS 10 [0.07 0 2] [energy 1942.418529 ei 54.314 es 0.030 et 2.900 er 0.334] 
N -t 84.650206 -n 1 -e 1953.713900
N -t 84.650206 -n 4 -e 1956.316920
N -t 84.650206 -n 3 -e 1957.605231
N -t 84.650206 -n 0 -e 1954.424920
N -t 84.690206 -n 1 -e 1953.684800
N -t 84.690206 -n 3 -e 1957.576131
N -t 84.690206 -n 2 -e 1942.176229
N -t 84.690206 -n 4 -e 1956.287821
N -t 84.690206 -n 0 -e 1954.395821
N -t 85.980006 -n 1 -e 1953.683411
N -t 85.980006 -n 3 -e 1957.574741
N -t 85.980006 -n 2 -e 1942.174839
N -t 85.980006 -n 4 -e 1956.286431
N -t 85.980006 -n 0 -e 1954.394431