s 994.539034247 _1_ MAC  --- 0 SYNC 9 [0.10 1 0] [energy 471.062287 ei 454.042 es 0.521 et 57.170 er 16.397] 
N -t 998.944234 -n 1 -e 470.451617
N -t 998.944234 -n 0 -e 397.971397

s 993.092033998 _0_ MAC  --- 0 SYNC 9 [0.12 0 1] [energy 402.588687 ei 452.612 es 0.521 et 136.610 er 6.860] 

s 993.092033998 _0_ MAC  --- 0 SYNC 9 [0.12 0 1] [energy 402.588687 ei 452.612 es 0.521 et 136.610 er 6.860] 


s 849.880229532 _0_ MAC  --- 494 cbr 50 [0.01 1 0] [energy 26.257929 ei 690.514 es 0.121 et 269.510 er 13.409] ------- [0:0 1:0 32 0] [494] 0 0
