V -t * -v 1.0a5 -a 0
W -t * -x 500 -y 500
A -t * -n 1 -p 0 -o 0x7fffffff -c 30 -a 1
A -t * -h 1 -m 1073741823 -s 0
+ -t 1.000000000 -s 0 -d -1 -p cbr -e 512 -c 2 -a 0 -i 0 -k AGT 
- -t 1.000000000 -s 0 -d -1 -p cbr -e 512 -c 2 -a 0 -i 0 -k AGT
h -t 1.000000000 -s 0 -d -1 -p cbr -e 512 -c 2 -a 0 -i 0 -k AGT
+ -t 1.000000000 -s 0 -d -1 -p cbr -e 512 -c 2 -a 0 -i 0 -k RTR 
- -t 1.000000000 -s 0 -d -1 -p cbr -e 512 -c 2 -a 0 -i 0 -k RTR
h -t 1.000000000 -s 0 -d -1 -p cbr -e 512 -c 2 -a 0 -i 0 -k RTR
+ -t 1.000095000 -s 0 -d -1 -p ARP -e 86 -c 2 -a 0 -i 0 -k MAC 
- -t 1.000095000 -s 0 -d -1 -p ARP -e 86 -c 2 -a 0 -i 0 -k MAC
h -t 1.000095000 -s 0 -d -1 -p ARP -e 86 -c 2 -a 0 -i 0 -k MAC
r -t 1.000783000 -s 1 -d -1 -p ARP -e 28 -c 2 -a 0 -i 0 -k MAC
+ -t 1.001138000 -s 1 -d -1 -p RTS -e 44 -c 2 -a 0 -i 0 -k MAC 
- -t 1.001138000 -s 1 -d -1 -p RTS -e 44 -c 2 -a 0 -i 0 -k MAC
h -t 1.001138000 -s 1 -d -1 -p RTS -e 44 -c 2 -a 0 -i 0 -k MAC
r -t 1.001490000 -s 0 -d -1 -p RTS -e 44 -c 2 -a 0 -i 0 -k MAC
+ -t 1.001500000 -s 0 -d -1 -p CTS -e 38 -c 2 -a 0 -i 0 -k MAC 
- -t 1.001500000 -s 0 -d -1 -p CTS -e 38 -c 2 -a 0 -i 0 -k MAC
h -t 1.001500000 -s 0 -d -1 -p CTS -e 38 -c 2 -a 0 -i 0 -k MAC
r -t 1.001804000 -s 1 -d -1 -p CTS -e 38 -c 2 -a 0 -i 0 -k MAC
+ -t 1.001814000 -s 1 -d -1 -p ARP -e 86 -c 2 -a 0 -i 0 -k MAC 
- -t 1.001814000 -s 1 -d -1 -p ARP -e 86 -c 2 -a 0 -i 0 -k MAC
h -t 1.001814000 -s 1 -d -1 -p ARP -e 86 -c 2 -a 0 -i 0 -k MAC
r -t 1.002502000 -s 0 -d -1 -p ARP -e 28 -c 2 -a 0 -i 0 -k MAC
+ -t 1.002512000 -s 0 -d -1 -p ACK -e 38 -c 2 -a 0 -i 0 -k MAC 
- -t 1.002512000 -s 0 -d -1 -p ACK -e 38 -c 2 -a 0 -i 0 -k MAC
h -t 1.002512000 -s 0 -d -1 -p ACK -e 38 -c 2 -a 0 -i 0 -k MAC
r -t 1.002816000 -s 1 -d -1 -p ACK -e 38 -c 2 -a 0 -i 0 -k MAC
+ -t 1.003126000 -s 0 -d -1 -p RTS -e 44 -c 2 -a 0 -i 0 -k MAC 
- -t 1.003126000 -s 0 -d -1 -p RTS -e 44 -c 2 -a 0 -i 0 -k MAC
h -t 1.003126000 -s 0 -d -1 -p RTS -e 44 -c 2 -a 0 -i 0 -k MAC
r -t 1.003478000 -s 1 -d -1 -p RTS -e 44 -c 2 -a 0 -i 0 -k MAC
+ -t 1.003488000 -s 1 -d -1 -p CTS -e 38 -c 2 -a 0 -i 0 -k MAC 
- -t 1.003488000 -s 1 -d -1 -p CTS -e 38 -c 2 -a 0 -i 0 -k MAC
h -t 1.003488000 -s 1 -d -1 -p CTS -e 38 -c 2 -a 0 -i 0 -k MAC
r -t 1.003792000 -s 0 -d -1 -p CTS -e 38 -c 2 -a 0 -i 0 -k MAC
+ -t 1.003802000 -s 0 -d -1 -p cbr -e 570 -c 2 -a 0 -i 0 -k MAC 
- -t 1.003802000 -s 0 -d -1 -p cbr -e 570 -c 2 -a 0 -i 0 -k MAC
h -t 1.003802000 -s 0 -d -1 -p cbr -e 570 -c 2 -a 0 -i 0 -k MAC
r -t 1.008362000 -s 1 -d -1 -p cbr -e 512 -c 2 -a 0 -i 0 -k MAC
+ -t 1.008372000 -s 1 -d -1 -p ACK -e 38 -c 2 -a 0 -i 0 -k MAC 
- -t 1.008372000 -s 1 -d -1 -p ACK -e 38 -c 2 -a 0 -i 0 -k MAC
h -t 1.008372000 -s 1 -d -1 -p ACK -e 38 -c 2 -a 0 -i 0 -k MAC
r -t 1.008387000 -s 1 -d -1 -p cbr -e 512 -c 2 -a 0 -i 0 -k AGT
r -t 1.008676000 -s 0 -d -1 -p ACK -e 38 -c 2 -a 0 -i 0 -k MAC
+ -t 6.003395772 -s 0 -d -1 -p cbr -e 512 -c 2 -a 0 -i 1 -k AGT 
- -t 6.003395772 -s 0 -d -1 -p cbr -e 512 -c 2 -a 0 -i 1 -k AGT
h -t 6.003395772 -s 0 -d -1 -p cbr -e 512 -c 2 -a 0 -i 1 -k AGT
+ -t 6.003395772 -s 0 -d -1 -p cbr -e 512 -c 2 -a 0 -i 1 -k RTR 
- -t 6.003395772 -s 0 -d -1 -p cbr -e 512 -c 2 -a 0 -i 1 -k RTR
h -t 6.003395772 -s 0 -d -1 -p cbr -e 512 -c 2 -a 0 -i 1 -k RTR
+ -t 6.003670772 -s 0 -d -1 -p RTS -e 44 -c 2 -a 0 -i 0 -k MAC 
- -t 6.003670772 -s 0 -d -1 -p RTS -e 44 -c 2 -a 0 -i 0 -k MAC
h -t 6.003670772 -s 0 -d -1 -p RTS -e 44 -c 2 -a 0 -i 0 -k MAC
r -t 6.004022772 -s 1 -d -1 -p RTS -e 44 -c 2 -a 0 -i 0 -k MAC
+ -t 6.004032772 -s 1 -d -1 -p CTS -e 38 -c 2 -a 0 -i 0 -k MAC 
- -t 6.004032772 -s 1 -d -1 -p CTS -e 38 -c 2 -a 0 -i 0 -k MAC
h -t 6.004032772 -s 1 -d -1 -p CTS -e 38 -c 2 -a 0 -i 0 -k MAC
r -t 6.004336772 -s 0 -d -1 -p CTS -e 38 -c 2 -a 0 -i 0 -k MAC
+ -t 6.004346772 -s 0 -d -1 -p cbr -e 570 -c 2 -a 0 -i 1 -k MAC 
- -t 6.004346772 -s 0 -d -1 -p cbr -e 570 -c 2 -a 0 -i 1 -k MAC
h -t 6.004346772 -s 0 -d -1 -p cbr -e 570 -c 2 -a 0 -i 1 -k MAC
r -t 6.008906772 -s 1 -d -1 -p cbr -e 512 -c 2 -a 0 -i 1 -k MAC
+ -t 6.008916772 -s 1 -d -1 -p ACK -e 38 -c 2 -a 0 -i 0 -k MAC 
- -t 6.008916772 -s 1 -d -1 -p ACK -e 38 -c 2 -a 0 -i 0 -k MAC
h -t 6.008916772 -s 1 -d -1 -p ACK -e 38 -c 2 -a 0 -i 0 -k MAC
r -t 6.008931772 -s 1 -d -1 -p cbr -e 512 -c 2 -a 0 -i 1 -k AGT
r -t 6.009220772 -s 0 -d -1 -p ACK -e 38 -c 2 -a 0 -i 0 -k MAC
+ -t 14.133013489 -s 0 -d -1 -p cbr -e 512 -c 2 -a 0 -i 2 -k AGT 
- -t 14.133013489 -s 0 -d -1 -p cbr -e 512 -c 2 -a 0 -i 2 -k AGT
h -t 14.133013489 -s 0 -d -1 -p cbr -e 512 -c 2 -a 0 -i 2 -k AGT
+ -t 14.133013489 -s 0 -d -1 -p cbr -e 512 -c 2 -a 0 -i 2 -k RTR 
- -t 14.133013489 -s 0 -d -1 -p cbr -e 512 -c 2 -a 0 -i 2 -k RTR
h -t 14.133013489 -s 0 -d -1 -p cbr -e 512 -c 2 -a 0 -i 2 -k RTR
+ -t 14.133348489 -s 0 -d -1 -p RTS -e 44 -c 2 -a 0 -i 0 -k MAC 
- -t 14.133348489 -s 0 -d -1 -p RTS -e 44 -c 2 -a 0 -i 0 -k MAC
h -t 14.133348489 -s 0 -d -1 -p RTS -e 44 -c 2 -a 0 -i 0 -k MAC
r -t 14.133700489 -s 1 -d -1 -p RTS -e 44 -c 2 -a 0 -i 0 -k MAC
+ -t 14.133710489 -s 1 -d -1 -p CTS -e 38 -c 2 -a 0 -i 0 -k MAC 
- -t 14.133710489 -s 1 -d -1 -p CTS -e 38 -c 2 -a 0 -i 0 -k MAC
h -t 14.133710489 -s 1 -d -1 -p CTS -e 38 -c 2 -a 0 -i 0 -k MAC
r -t 14.134014489 -s 0 -d -1 -p CTS -e 38 -c 2 -a 0 -i 0 -k MAC
+ -t 14.134024489 -s 0 -d -1 -p cbr -e 570 -c 2 -a 0 -i 2 -k MAC 
- -t 14.134024489 -s 0 -d -1 -p cbr -e 570 -c 2 -a 0 -i 2 -k MAC
h -t 14.134024489 -s 0 -d -1 -p cbr -e 570 -c 2 -a 0 -i 2 -k MAC
r -t 14.138584489 -s 1 -d -1 -p cbr -e 512 -c 2 -a 0 -i 2 -k MAC
+ -t 14.138594489 -s 1 -d -1 -p ACK -e 38 -c 2 -a 0 -i 0 -k MAC 
- -t 14.138594489 -s 1 -d -1 -p ACK -e 38 -c 2 -a 0 -i 0 -k MAC
h -t 14.138594489 -s 1 -d -1 -p ACK -e 38 -c 2 -a 0 -i 0 -k MAC
r -t 14.138609489 -s 1 -d -1 -p cbr -e 512 -c 2 -a 0 -i 2 -k AGT
r -t 14.138898489 -s 0 -d -1 -p ACK -e 38 -c 2 -a 0 -i 0 -k MAC
+ -t 25.521664921 -s 0 -d -1 -p cbr -e 512 -c 2 -a 0 -i 3 -k AGT 
- -t 25.521664921 -s 0 -d -1 -p cbr -e 512 -c 2 -a 0 -i 3 -k AGT
h -t 25.521664921 -s 0 -d -1 -p cbr -e 512 -c 2 -a 0 -i 3 -k AGT
+ -t 25.521664921 -s 0 -d -1 -p cbr -e 512 -c 2 -a 0 -i 3 -k RTR 
- -t 25.521664921 -s 0 -d -1 -p cbr -e 512 -c 2 -a 0 -i 3 -k RTR
h -t 25.521664921 -s 0 -d -1 -p cbr -e 512 -c 2 -a 0 -i 3 -k RTR
+ -t 25.522279921 -s 0 -d -1 -p RTS -e 44 -c 2 -a 0 -i 0 -k MAC 
- -t 25.522279921 -s 0 -d -1 -p RTS -e 44 -c 2 -a 0 -i 0 -k MAC
h -t 25.522279921 -s 0 -d -1 -p RTS -e 44 -c 2 -a 0 -i 0 -k MAC
r -t 25.522631921 -s 1 -d -1 -p RTS -e 44 -c 2 -a 0 -i 0 -k MAC
+ -t 25.522641921 -s 1 -d -1 -p CTS -e 38 -c 2 -a 0 -i 0 -k MAC 
- -t 25.522641921 -s 1 -d -1 -p CTS -e 38 -c 2 -a 0 -i 0 -k MAC
h -t 25.522641921 -s 1 -d -1 -p CTS -e 38 -c 2 -a 0 -i 0 -k MAC
r -t 25.522945921 -s 0 -d -1 -p CTS -e 38 -c 2 -a 0 -i 0 -k MAC
+ -t 25.522955921 -s 0 -d -1 -p cbr -e 570 -c 2 -a 0 -i 3 -k MAC 
- -t 25.522955921 -s 0 -d -1 -p cbr -e 570 -c 2 -a 0 -i 3 -k MAC
h -t 25.522955921 -s 0 -d -1 -p cbr -e 570 -c 2 -a 0 -i 3 -k MAC
r -t 25.527515921 -s 1 -d -1 -p cbr -e 512 -c 2 -a 0 -i 3 -k MAC
+ -t 25.527525921 -s 1 -d -1 -p ACK -e 38 -c 2 -a 0 -i 0 -k MAC 
- -t 25.527525921 -s 1 -d -1 -p ACK -e 38 -c 2 -a 0 -i 0 -k MAC
h -t 25.527525921 -s 1 -d -1 -p ACK -e 38 -c 2 -a 0 -i 0 -k MAC
r -t 25.527540921 -s 1 -d -1 -p cbr -e 512 -c 2 -a 0 -i 3 -k AGT
r -t 25.527829921 -s 0 -d -1 -p ACK -e 38 -c 2 -a 0 -i 0 -k MAC
+ -t 32.163118987 -s 0 -d -1 -p cbr -e 512 -c 2 -a 0 -i 4 -k AGT 
- -t 32.163118987 -s 0 -d -1 -p cbr -e 512 -c 2 -a 0 -i 4 -k AGT
h -t 32.163118987 -s 0 -d -1 -p cbr -e 512 -c 2 -a 0 -i 4 -k AGT
+ -t 32.163118987 -s 0 -d -1 -p cbr -e 512 -c 2 -a 0 -i 4 -k RTR 
- -t 32.163118987 -s 0 -d -1 -p cbr -e 512 -c 2 -a 0 -i 4 -k RTR
h -t 32.163118987 -s 0 -d -1 -p cbr -e 512 -c 2 -a 0 -i 4 -k RTR
+ -t 32.163433987 -s 0 -d -1 -p RTS -e 44 -c 2 -a 0 -i 0 -k MAC 
- -t 32.163433987 -s 0 -d -1 -p RTS -e 44 -c 2 -a 0 -i 0 -k MAC
h -t 32.163433987 -s 0 -d -1 -p RTS -e 44 -c 2 -a 0 -i 0 -k MAC
r -t 32.163785987 -s 1 -d -1 -p RTS -e 44 -c 2 -a 0 -i 0 -k MAC
+ -t 32.163795987 -s 1 -d -1 -p CTS -e 38 -c 2 -a 0 -i 0 -k MAC 
- -t 32.163795987 -s 1 -d -1 -p CTS -e 38 -c 2 -a 0 -i 0 -k MAC
h -t 32.163795987 -s 1 -d -1 -p CTS -e 38 -c 2 -a 0 -i 0 -k MAC
r -t 32.164099987 -s 0 -d -1 -p CTS -e 38 -c 2 -a 0 -i 0 -k MAC
+ -t 32.164109987 -s 0 -d -1 -p cbr -e 570 -c 2 -a 0 -i 4 -k MAC 
- -t 32.164109987 -s 0 -d -1 -p cbr -e 570 -c 2 -a 0 -i 4 -k MAC
h -t 32.164109987 -s 0 -d -1 -p cbr -e 570 -c 2 -a 0 -i 4 -k MAC
r -t 32.168669987 -s 1 -d -1 -p cbr -e 512 -c 2 -a 0 -i 4 -k MAC
+ -t 32.168679987 -s 1 -d -1 -p ACK -e 38 -c 2 -a 0 -i 0 -k MAC 
- -t 32.168679987 -s 1 -d -1 -p ACK -e 38 -c 2 -a 0 -i 0 -k MAC
h -t 32.168679987 -s 1 -d -1 -p ACK -e 38 -c 2 -a 0 -i 0 -k MAC
r -t 32.168694987 -s 1 -d -1 -p cbr -e 512 -c 2 -a 0 -i 4 -k AGT
r -t 32.168983987 -s 0 -d -1 -p ACK -e 38 -c 2 -a 0 -i 0 -k MAC
+ -t 38.301201473 -s 0 -d -1 -p cbr -e 512 -c 2 -a 0 -i 5 -k AGT 
- -t 38.301201473 -s 0 -d -1 -p cbr -e 512 -c 2 -a 0 -i 5 -k AGT
h -t 38.301201473 -s 0 -d -1 -p cbr -e 512 -c 2 -a 0 -i 5 -k AGT
+ -t 38.301201473 -s 0 -d -1 -p cbr -e 512 -c 2 -a 0 -i 5 -k RTR 
- -t 38.301201473 -s 0 -d -1 -p cbr -e 512 -c 2 -a 0 -i 5 -k RTR
h -t 38.301201473 -s 0 -d -1 -p cbr -e 512 -c 2 -a 0 -i 5 -k RTR
+ -t 38.301616473 -s 0 -d -1 -p RTS -e 44 -c 2 -a 0 -i 0 -k MAC 
- -t 38.301616473 -s 0 -d -1 -p RTS -e 44 -c 2 -a 0 -i 0 -k MAC
h -t 38.301616473 -s 0 -d -1 -p RTS -e 44 -c 2 -a 0 -i 0 -k MAC
r -t 38.301968473 -s 1 -d -1 -p RTS -e 44 -c 2 -a 0 -i 0 -k MAC
+ -t 38.301978473 -s 1 -d -1 -p CTS -e 38 -c 2 -a 0 -i 0 -k MAC 
- -t 38.301978473 -s 1 -d -1 -p CTS -e 38 -c 2 -a 0 -i 0 -k MAC
h -t 38.301978473 -s 1 -d -1 -p CTS -e 38 -c 2 -a 0 -i 0 -k MAC
r -t 38.302282473 -s 0 -d -1 -p CTS -e 38 -c 2 -a 0 -i 0 -k MAC
+ -t 38.302292473 -s 0 -d -1 -p cbr -e 570 -c 2 -a 0 -i 5 -k MAC 
- -t 38.302292473 -s 0 -d -1 -p cbr -e 570 -c 2 -a 0 -i 5 -k MAC
h -t 38.302292473 -s 0 -d -1 -p cbr -e 570 -c 2 -a 0 -i 5 -k MAC
r -t 38.306852473 -s 1 -d -1 -p cbr -e 512 -c 2 -a 0 -i 5 -k MAC
+ -t 38.306862473 -s 1 -d -1 -p ACK -e 38 -c 2 -a 0 -i 0 -k MAC 
- -t 38.306862473 -s 1 -d -1 -p ACK -e 38 -c 2 -a 0 -i 0 -k MAC
h -t 38.306862473 -s 1 -d -1 -p ACK -e 38 -c 2 -a 0 -i 0 -k MAC
r -t 38.306877473 -s 1 -d -1 -p cbr -e 512 -c 2 -a 0 -i 5 -k AGT
r -t 38.307166473 -s 0 -d -1 -p ACK -e 38 -c 2 -a 0 -i 0 -k MAC
+ -t 45.049254011 -s 0 -d -1 -p cbr -e 512 -c 2 -a 0 -i 6 -k AGT 
- -t 45.049254011 -s 0 -d -1 -p cbr -e 512 -c 2 -a 0 -i 6 -k AGT
h -t 45.049254011 -s 0 -d -1 -p cbr -e 512 -c 2 -a 0 -i 6 -k AGT
+ -t 45.049254011 -s 0 -d -1 -p cbr -e 512 -c 2 -a 0 -i 6 -k RTR 
- -t 45.049254011 -s 0 -d -1 -p cbr -e 512 -c 2 -a 0 -i 6 -k RTR
h -t 45.049254011 -s 0 -d -1 -p cbr -e 512 -c 2 -a 0 -i 6 -k RTR
+ -t 45.049549011 -s 0 -d -1 -p RTS -e 44 -c 2 -a 0 -i 0 -k MAC 
- -t 45.049549011 -s 0 -d -1 -p RTS -e 44 -c 2 -a 0 -i 0 -k MAC
h -t 45.049549011 -s 0 -d -1 -p RTS -e 44 -c 2 -a 0 -i 0 -k MAC
r -t 45.049901011 -s 1 -d -1 -p RTS -e 44 -c 2 -a 0 -i 0 -k MAC
+ -t 45.049911011 -s 1 -d -1 -p CTS -e 38 -c 2 -a 0 -i 0 -k MAC 
- -t 45.049911011 -s 1 -d -1 -p CTS -e 38 -c 2 -a 0 -i 0 -k MAC
h -t 45.049911011 -s 1 -d -1 -p CTS -e 38 -c 2 -a 0 -i 0 -k MAC
r -t 45.050215011 -s 0 -d -1 -p CTS -e 38 -c 2 -a 0 -i 0 -k MAC
+ -t 45.050225011 -s 0 -d -1 -p cbr -e 570 -c 2 -a 0 -i 6 -k MAC 
- -t 45.050225011 -s 0 -d -1 -p cbr -e 570 -c 2 -a 0 -i 6 -k MAC
h -t 45.050225011 -s 0 -d -1 -p cbr -e 570 -c 2 -a 0 -i 6 -k MAC
r -t 45.054785011 -s 1 -d -1 -p cbr -e 512 -c 2 -a 0 -i 6 -k MAC
+ -t 45.054795011 -s 1 -d -1 -p ACK -e 38 -c 2 -a 0 -i 0 -k MAC 
- -t 45.054795011 -s 1 -d -1 -p ACK -e 38 -c 2 -a 0 -i 0 -k MAC
h -t 45.054795011 -s 1 -d -1 -p ACK -e 38 -c 2 -a 0 -i 0 -k MAC
r -t 45.054810011 -s 1 -d -1 -p cbr -e 512 -c 2 -a 0 -i 6 -k AGT
r -t 45.055099011 -s 0 -d -1 -p ACK -e 38 -c 2 -a 0 -i 0 -k MAC
+ -t 53.536664267 -s 0 -d -1 -p cbr -e 512 -c 2 -a 0 -i 7 -k AGT 
- -t 53.536664267 -s 0 -d -1 -p cbr -e 512 -c 2 -a 0 -i 7 -k AGT
h -t 53.536664267 -s 0 -d -1 -p cbr -e 512 -c 2 -a 0 -i 7 -k AGT
+ -t 53.536664267 -s 0 -d -1 -p cbr -e 512 -c 2 -a 0 -i 7 -k RTR 
- -t 53.536664267 -s 0 -d -1 -p cbr -e 512 -c 2 -a 0 -i 7 -k RTR
h -t 53.536664267 -s 0 -d -1 -p cbr -e 512 -c 2 -a 0 -i 7 -k RTR
+ -t 53.537179267 -s 0 -d -1 -p RTS -e 44 -c 2 -a 0 -i 0 -k MAC 
- -t 53.537179267 -s 0 -d -1 -p RTS -e 44 -c 2 -a 0 -i 0 -k MAC
h -t 53.537179267 -s 0 -d -1 -p RTS -e 44 -c 2 -a 0 -i 0 -k MAC
r -t 53.537531267 -s 1 -d -1 -p RTS -e 44 -c 2 -a 0 -i 0 -k MAC
+ -t 53.537541267 -s 1 -d -1 -p CTS -e 38 -c 2 -a 0 -i 0 -k MAC 
- -t 53.537541267 -s 1 -d -1 -p CTS -e 38 -c 2 -a 0 -i 0 -k MAC
h -t 53.537541267 -s 1 -d -1 -p CTS -e 38 -c 2 -a 0 -i 0 -k MAC
r -t 53.537845267 -s 0 -d -1 -p CTS -e 38 -c 2 -a 0 -i 0 -k MAC
+ -t 53.537855267 -s 0 -d -1 -p cbr -e 570 -c 2 -a 0 -i 7 -k MAC 
- -t 53.537855267 -s 0 -d -1 -p cbr -e 570 -c 2 -a 0 -i 7 -k MAC
h -t 53.537855267 -s 0 -d -1 -p cbr -e 570 -c 2 -a 0 -i 7 -k MAC
r -t 53.542415267 -s 1 -d -1 -p cbr -e 512 -c 2 -a 0 -i 7 -k MAC
+ -t 53.542425267 -s 1 -d -1 -p ACK -e 38 -c 2 -a 0 -i 0 -k MAC 
- -t 53.542425267 -s 1 -d -1 -p ACK -e 38 -c 2 -a 0 -i 0 -k MAC
h -t 53.542425267 -s 1 -d -1 -p ACK -e 38 -c 2 -a 0 -i 0 -k MAC
r -t 53.542440267 -s 1 -d -1 -p cbr -e 512 -c 2 -a 0 -i 7 -k AGT
r -t 53.542729267 -s 0 -d -1 -p ACK -e 38 -c 2 -a 0 -i 0 -k MAC
+ -t 63.723152215 -s 0 -d -1 -p cbr -e 512 -c 2 -a 0 -i 8 -k AGT 
- -t 63.723152215 -s 0 -d -1 -p cbr -e 512 -c 2 -a 0 -i 8 -k AGT
h -t 63.723152215 -s 0 -d -1 -p cbr -e 512 -c 2 -a 0 -i 8 -k AGT
+ -t 63.723152215 -s 0 -d -1 -p cbr -e 512 -c 2 -a 0 -i 8 -k RTR 
- -t 63.723152215 -s 0 -d -1 -p cbr -e 512 -c 2 -a 0 -i 8 -k RTR
h -t 63.723152215 -s 0 -d -1 -p cbr -e 512 -c 2 -a 0 -i 8 -k RTR
+ -t 63.723627215 -s 0 -d -1 -p RTS -e 44 -c 2 -a 0 -i 0 -k MAC 
- -t 63.723627215 -s 0 -d -1 -p RTS -e 44 -c 2 -a 0 -i 0 -k MAC
h -t 63.723627215 -s 0 -d -1 -p RTS -e 44 -c 2 -a 0 -i 0 -k MAC
r -t 63.723979215 -s 1 -d -1 -p RTS -e 44 -c 2 -a 0 -i 0 -k MAC
+ -t 63.723989215 -s 1 -d -1 -p CTS -e 38 -c 2 -a 0 -i 0 -k MAC 
- -t 63.723989215 -s 1 -d -1 -p CTS -e 38 -c 2 -a 0 -i 0 -k MAC
h -t 63.723989215 -s 1 -d -1 -p CTS -e 38 -c 2 -a 0 -i 0 -k MAC
r -t 63.724293215 -s 0 -d -1 -p CTS -e 38 -c 2 -a 0 -i 0 -k MAC
+ -t 63.724303215 -s 0 -d -1 -p cbr -e 570 -c 2 -a 0 -i 8 -k MAC 
- -t 63.724303215 -s 0 -d -1 -p cbr -e 570 -c 2 -a 0 -i 8 -k MAC
h -t 63.724303215 -s 0 -d -1 -p cbr -e 570 -c 2 -a 0 -i 8 -k MAC
r -t 63.728863215 -s 1 -d -1 -p cbr -e 512 -c 2 -a 0 -i 8 -k MAC
+ -t 63.728873215 -s 1 -d -1 -p ACK -e 38 -c 2 -a 0 -i 0 -k MAC 
- -t 63.728873215 -s 1 -d -1 -p ACK -e 38 -c 2 -a 0 -i 0 -k MAC
h -t 63.728873215 -s 1 -d -1 -p ACK -e 38 -c 2 -a 0 -i 0 -k MAC
r -t 63.728888215 -s 1 -d -1 -p cbr -e 512 -c 2 -a 0 -i 8 -k AGT
r -t 63.729177215 -s 0 -d -1 -p ACK -e 38 -c 2 -a 0 -i 0 -k MAC
+ -t 77.343825024 -s 0 -d -1 -p cbr -e 512 -c 2 -a 0 -i 9 -k AGT 
- -t 77.343825024 -s 0 -d -1 -p cbr -e 512 -c 2 -a 0 -i 9 -k AGT
h -t 77.343825024 -s 0 -d -1 -p cbr -e 512 -c 2 -a 0 -i 9 -k AGT
+ -t 77.343825024 -s 0 -d -1 -p cbr -e 512 -c 2 -a 0 -i 9 -k RTR 
- -t 77.343825024 -s 0 -d -1 -p cbr -e 512 -c 2 -a 0 -i 9 -k RTR
h -t 77.343825024 -s 0 -d -1 -p cbr -e 512 -c 2 -a 0 -i 9 -k RTR
+ -t 77.343940024 -s 0 -d -1 -p RTS -e 44 -c 2 -a 0 -i 0 -k MAC 
- -t 77.343940024 -s 0 -d -1 -p RTS -e 44 -c 2 -a 0 -i 0 -k MAC
h -t 77.343940024 -s 0 -d -1 -p RTS -e 44 -c 2 -a 0 -i 0 -k MAC
r -t 77.344292024 -s 1 -d -1 -p RTS -e 44 -c 2 -a 0 -i 0 -k MAC
+ -t 77.344302024 -s 1 -d -1 -p CTS -e 38 -c 2 -a 0 -i 0 -k MAC 
- -t 77.344302024 -s 1 -d -1 -p CTS -e 38 -c 2 -a 0 -i 0 -k MAC
h -t 77.344302024 -s 1 -d -1 -p CTS -e 38 -c 2 -a 0 -i 0 -k MAC
r -t 77.344606024 -s 0 -d -1 -p CTS -e 38 -c 2 -a 0 -i 0 -k MAC
+ -t 77.344616024 -s 0 -d -1 -p cbr -e 570 -c 2 -a 0 -i 9 -k MAC 
- -t 77.344616024 -s 0 -d -1 -p cbr -e 570 -c 2 -a 0 -i 9 -k MAC
h -t 77.344616024 -s 0 -d -1 -p cbr -e 570 -c 2 -a 0 -i 9 -k MAC
r -t 77.349176024 -s 1 -d -1 -p cbr -e 512 -c 2 -a 0 -i 9 -k MAC
+ -t 77.349186024 -s 1 -d -1 -p ACK -e 38 -c 2 -a 0 -i 0 -k MAC 
- -t 77.349186024 -s 1 -d -1 -p ACK -e 38 -c 2 -a 0 -i 0 -k MAC
h -t 77.349186024 -s 1 -d -1 -p ACK -e 38 -c 2 -a 0 -i 0 -k MAC
r -t 77.349201024 -s 1 -d -1 -p cbr -e 512 -c 2 -a 0 -i 9 -k AGT
r -t 77.349490024 -s 0 -d -1 -p ACK -e 38 -c 2 -a 0 -i 0 -k MAC
+ -t 84.756081304 -s 0 -d -1 -p cbr -e 512 -c 2 -a 0 -i 10 -k AGT 
- -t 84.756081304 -s 0 -d -1 -p cbr -e 512 -c 2 -a 0 -i 10 -k AGT
h -t 84.756081304 -s 0 -d -1 -p cbr -e 512 -c 2 -a 0 -i 10 -k AGT
+ -t 84.756081304 -s 0 -d -1 -p cbr -e 512 -c 2 -a 0 -i 10 -k RTR 
- -t 84.756081304 -s 0 -d -1 -p cbr -e 512 -c 2 -a 0 -i 10 -k RTR
h -t 84.756081304 -s 0 -d -1 -p cbr -e 512 -c 2 -a 0 -i 10 -k RTR
+ -t 84.756296304 -s 0 -d -1 -p RTS -e 44 -c 2 -a 0 -i 0 -k MAC 
- -t 84.756296304 -s 0 -d -1 -p RTS -e 44 -c 2 -a 0 -i 0 -k MAC
h -t 84.756296304 -s 0 -d -1 -p RTS -e 44 -c 2 -a 0 -i 0 -k MAC
r -t 84.756648304 -s 1 -d -1 -p RTS -e 44 -c 2 -a 0 -i 0 -k MAC
+ -t 84.756658304 -s 1 -d -1 -p CTS -e 38 -c 2 -a 0 -i 0 -k MAC 
- -t 84.756658304 -s 1 -d -1 -p CTS -e 38 -c 2 -a 0 -i 0 -k MAC
h -t 84.756658304 -s 1 -d -1 -p CTS -e 38 -c 2 -a 0 -i 0 -k MAC
r -t 84.756962304 -s 0 -d -1 -p CTS -e 38 -c 2 -a 0 -i 0 -k MAC
+ -t 84.756972304 -s 0 -d -1 -p cbr -e 570 -c 2 -a 0 -i 10 -k MAC 
- -t 84.756972304 -s 0 -d -1 -p cbr -e 570 -c 2 -a 0 -i 10 -k MAC
h -t 84.756972304 -s 0 -d -1 -p cbr -e 570 -c 2 -a 0 -i 10 -k MAC
r -t 84.761532304 -s 1 -d -1 -p cbr -e 512 -c 2 -a 0 -i 10 -k MAC
+ -t 84.761542304 -s 1 -d -1 -p ACK -e 38 -c 2 -a 0 -i 0 -k MAC 
- -t 84.761542304 -s 1 -d -1 -p ACK -e 38 -c 2 -a 0 -i 0 -k MAC
h -t 84.761542304 -s 1 -d -1 -p ACK -e 38 -c 2 -a 0 -i 0 -k MAC
r -t 84.761557304 -s 1 -d -1 -p cbr -e 512 -c 2 -a 0 -i 10 -k AGT
r -t 84.761846304 -s 0 -d -1 -p ACK -e 38 -c 2 -a 0 -i 0 -k MAC
+ -t 97.378400232 -s 0 -d -1 -p cbr -e 512 -c 2 -a 0 -i 11 -k AGT 
- -t 97.378400232 -s 0 -d -1 -p cbr -e 512 -c 2 -a 0 -i 11 -k AGT
h -t 97.378400232 -s 0 -d -1 -p cbr -e 512 -c 2 -a 0 -i 11 -k AGT
+ -t 97.378400232 -s 0 -d -1 -p cbr -e 512 -c 2 -a 0 -i 11 -k RTR 
- -t 97.378400232 -s 0 -d -1 -p cbr -e 512 -c 2 -a 0 -i 11 -k RTR
h -t 97.378400232 -s 0 -d -1 -p cbr -e 512 -c 2 -a 0 -i 11 -k RTR
+ -t 97.378675232 -s 0 -d -1 -p RTS -e 44 -c 2 -a 0 -i 0 -k MAC 
- -t 97.378675232 -s 0 -d -1 -p RTS -e 44 -c 2 -a 0 -i 0 -k MAC
h -t 97.378675232 -s 0 -d -1 -p RTS -e 44 -c 2 -a 0 -i 0 -k MAC
r -t 97.379027232 -s 1 -d -1 -p RTS -e 44 -c 2 -a 0 -i 0 -k MAC
+ -t 97.379037232 -s 1 -d -1 -p CTS -e 38 -c 2 -a 0 -i 0 -k MAC 
- -t 97.379037232 -s 1 -d -1 -p CTS -e 38 -c 2 -a 0 -i 0 -k MAC
h -t 97.379037232 -s 1 -d -1 -p CTS -e 38 -c 2 -a 0 -i 0 -k MAC
r -t 97.379341232 -s 0 -d -1 -p CTS -e 38 -c 2 -a 0 -i 0 -k MAC
+ -t 97.379351232 -s 0 -d -1 -p cbr -e 570 -c 2 -a 0 -i 11 -k MAC 
- -t 97.379351232 -s 0 -d -1 -p cbr -e 570 -c 2 -a 0 -i 11 -k MAC
h -t 97.379351232 -s 0 -d -1 -p cbr -e 570 -c 2 -a 0 -i 11 -k MAC
r -t 97.383911232 -s 1 -d -1 -p cbr -e 512 -c 2 -a 0 -i 11 -k MAC
+ -t 97.383921232 -s 1 -d -1 -p ACK -e 38 -c 2 -a 0 -i 0 -k MAC 
- -t 97.383921232 -s 1 -d -1 -p ACK -e 38 -c 2 -a 0 -i 0 -k MAC
h -t 97.383921232 -s 1 -d -1 -p ACK -e 38 -c 2 -a 0 -i 0 -k MAC
r -t 97.383936232 -s 1 -d -1 -p cbr -e 512 -c 2 -a 0 -i 11 -k AGT
r -t 97.384225232 -s 0 -d -1 -p ACK -e 38 -c 2 -a 0 -i 0 -k MAC
+ -t 103.470384951 -s 0 -d -1 -p cbr -e 512 -c 2 -a 0 -i 12 -k AGT 
- -t 103.470384951 -s 0 -d -1 -p cbr -e 512 -c 2 -a 0 -i 12 -k AGT
h -t 103.470384951 -s 0 -d -1 -p cbr -e 512 -c 2 -a 0 -i 12 -k AGT
+ -t 103.470384951 -s 0 -d -1 -p cbr -e 512 -c 2 -a 0 -i 12 -k RTR 
- -t 103.470384951 -s 0 -d -1 -p cbr -e 512 -c 2 -a 0 -i 12 -k RTR
h -t 103.470384951 -s 0 -d -1 -p cbr -e 512 -c 2 -a 0 -i 12 -k RTR
+ -t 103.470679951 -s 0 -d -1 -p RTS -e 44 -c 2 -a 0 -i 0 -k MAC 
- -t 103.470679951 -s 0 -d -1 -p RTS -e 44 -c 2 -a 0 -i 0 -k MAC
h -t 103.470679951 -s 0 -d -1 -p RTS -e 44 -c 2 -a 0 -i 0 -k MAC
r -t 103.471031951 -s 1 -d -1 -p RTS -e 44 -c 2 -a 0 -i 0 -k MAC
+ -t 103.471041951 -s 1 -d -1 -p CTS -e 38 -c 2 -a 0 -i 0 -k MAC 
- -t 103.471041951 -s 1 -d -1 -p CTS -e 38 -c 2 -a 0 -i 0 -k MAC
h -t 103.471041951 -s 1 -d -1 -p CTS -e 38 -c 2 -a 0 -i 0 -k MAC
r -t 103.471345951 -s 0 -d -1 -p CTS -e 38 -c 2 -a 0 -i 0 -k MAC
+ -t 103.471355951 -s 0 -d -1 -p cbr -e 570 -c 2 -a 0 -i 12 -k MAC 
- -t 103.471355951 -s 0 -d -1 -p cbr -e 570 -c 2 -a 0 -i 12 -k MAC
h -t 103.471355951 -s 0 -d -1 -p cbr -e 570 -c 2 -a 0 -i 12 -k MAC
r -t 103.475915951 -s 1 -d -1 -p cbr -e 512 -c 2 -a 0 -i 12 -k MAC
+ -t 103.475925951 -s 1 -d -1 -p ACK -e 38 -c 2 -a 0 -i 0 -k MAC 
- -t 103.475925951 -s 1 -d -1 -p ACK -e 38 -c 2 -a 0 -i 0 -k MAC
h -t 103.475925951 -s 1 -d -1 -p ACK -e 38 -c 2 -a 0 -i 0 -k MAC
r -t 103.475940951 -s 1 -d -1 -p cbr -e 512 -c 2 -a 0 -i 12 -k AGT
r -t 103.476229951 -s 0 -d -1 -p ACK -e 38 -c 2 -a 0 -i 0 -k MAC
+ -t 117.344820412 -s 0 -d -1 -p cbr -e 512 -c 2 -a 0 -i 13 -k AGT 
- -t 117.344820412 -s 0 -d -1 -p cbr -e 512 -c 2 -a 0 -i 13 -k AGT
h -t 117.344820412 -s 0 -d -1 -p cbr -e 512 -c 2 -a 0 -i 13 -k AGT
+ -t 117.344820412 -s 0 -d -1 -p cbr -e 512 -c 2 -a 0 -i 13 -k RTR 
- -t 117.344820412 -s 0 -d -1 -p cbr -e 512 -c 2 -a 0 -i 13 -k RTR
h -t 117.344820412 -s 0 -d -1 -p cbr -e 512 -c 2 -a 0 -i 13 -k RTR
+ -t 117.344955412 -s 0 -d -1 -p RTS -e 44 -c 2 -a 0 -i 0 -k MAC 
- -t 117.344955412 -s 0 -d -1 -p RTS -e 44 -c 2 -a 0 -i 0 -k MAC
h -t 117.344955412 -s 0 -d -1 -p RTS -e 44 -c 2 -a 0 -i 0 -k MAC
r -t 117.345307412 -s 1 -d -1 -p RTS -e 44 -c 2 -a 0 -i 0 -k MAC
+ -t 117.345317412 -s 1 -d -1 -p CTS -e 38 -c 2 -a 0 -i 0 -k MAC 
- -t 117.345317412 -s 1 -d -1 -p CTS -e 38 -c 2 -a 0 -i 0 -k MAC
h -t 117.345317412 -s 1 -d -1 -p CTS -e 38 -c 2 -a 0 -i 0 -k MAC
r -t 117.345621412 -s 0 -d -1 -p CTS -e 38 -c 2 -a 0 -i 0 -k MAC
+ -t 117.345631412 -s 0 -d -1 -p cbr -e 570 -c 2 -a 0 -i 13 -k MAC 
- -t 117.345631412 -s 0 -d -1 -p cbr -e 570 -c 2 -a 0 -i 13 -k MAC
h -t 117.345631412 -s 0 -d -1 -p cbr -e 570 -c 2 -a 0 -i 13 -k MAC
r -t 117.350191412 -s 1 -d -1 -p cbr -e 512 -c 2 -a 0 -i 13 -k MAC
+ -t 117.350201412 -s 1 -d -1 -p ACK -e 38 -c 2 -a 0 -i 0 -k MAC 
- -t 117.350201412 -s 1 -d -1 -p ACK -e 38 -c 2 -a 0 -i 0 -k MAC
h -t 117.350201412 -s 1 -d -1 -p ACK -e 38 -c 2 -a 0 -i 0 -k MAC
r -t 117.350216412 -s 1 -d -1 -p cbr -e 512 -c 2 -a 0 -i 13 -k AGT
r -t 117.350505412 -s 0 -d -1 -p ACK -e 38 -c 2 -a 0 -i 0 -k MAC
+ -t 123.465133570 -s 0 -d -1 -p cbr -e 512 -c 2 -a 0 -i 14 -k AGT 
- -t 123.465133570 -s 0 -d -1 -p cbr -e 512 -c 2 -a 0 -i 14 -k AGT
h -t 123.465133570 -s 0 -d -1 -p cbr -e 512 -c 2 -a 0 -i 14 -k AGT
+ -t 123.465133570 -s 0 -d -1 -p cbr -e 512 -c 2 -a 0 -i 14 -k RTR 
- -t 123.465133570 -s 0 -d -1 -p cbr -e 512 -c 2 -a 0 -i 14 -k RTR
h -t 123.465133570 -s 0 -d -1 -p cbr -e 512 -c 2 -a 0 -i 14 -k RTR
+ -t 123.465708570 -s 0 -d -1 -p RTS -e 44 -c 2 -a 0 -i 0 -k MAC 
- -t 123.465708570 -s 0 -d -1 -p RTS -e 44 -c 2 -a 0 -i 0 -k MAC
h -t 123.465708570 -s 0 -d -1 -p RTS -e 44 -c 2 -a 0 -i 0 -k MAC
r -t 123.466060570 -s 1 -d -1 -p RTS -e 44 -c 2 -a 0 -i 0 -k MAC
+ -t 123.466070570 -s 1 -d -1 -p CTS -e 38 -c 2 -a 0 -i 0 -k MAC 
- -t 123.466070570 -s 1 -d -1 -p CTS -e 38 -c 2 -a 0 -i 0 -k MAC
h -t 123.466070570 -s 1 -d -1 -p CTS -e 38 -c 2 -a 0 -i 0 -k MAC
r -t 123.466374570 -s 0 -d -1 -p CTS -e 38 -c 2 -a 0 -i 0 -k MAC
+ -t 123.466384570 -s 0 -d -1 -p cbr -e 570 -c 2 -a 0 -i 14 -k MAC 
- -t 123.466384570 -s 0 -d -1 -p cbr -e 570 -c 2 -a 0 -i 14 -k MAC
h -t 123.466384570 -s 0 -d -1 -p cbr -e 570 -c 2 -a 0 -i 14 -k MAC
r -t 123.470944570 -s 1 -d -1 -p cbr -e 512 -c 2 -a 0 -i 14 -k MAC
+ -t 123.470954570 -s 1 -d -1 -p ACK -e 38 -c 2 -a 0 -i 0 -k MAC 
- -t 123.470954570 -s 1 -d -1 -p ACK -e 38 -c 2 -a 0 -i 0 -k MAC
h -t 123.470954570 -s 1 -d -1 -p ACK -e 38 -c 2 -a 0 -i 0 -k MAC
r -t 123.470969570 -s 1 -d -1 -p cbr -e 512 -c 2 -a 0 -i 14 -k AGT
r -t 123.471258570 -s 0 -d -1 -p ACK -e 38 -c 2 -a 0 -i 0 -k MAC
+ -t 134.415407448 -s 0 -d -1 -p cbr -e 512 -c 2 -a 0 -i 15 -k AGT 
- -t 134.415407448 -s 0 -d -1 -p cbr -e 512 -c 2 -a 0 -i 15 -k AGT
h -t 134.415407448 -s 0 -d -1 -p cbr -e 512 -c 2 -a 0 -i 15 -k AGT
+ -t 134.415407448 -s 0 -d -1 -p cbr -e 512 -c 2 -a 0 -i 15 -k RTR 
- -t 134.415407448 -s 0 -d -1 -p cbr -e 512 -c 2 -a 0 -i 15 -k RTR
h -t 134.415407448 -s 0 -d -1 -p cbr -e 512 -c 2 -a 0 -i 15 -k RTR
+ -t 134.415762448 -s 0 -d -1 -p RTS -e 44 -c 2 -a 0 -i 0 -k MAC 
- -t 134.415762448 -s 0 -d -1 -p RTS -e 44 -c 2 -a 0 -i 0 -k MAC
h -t 134.415762448 -s 0 -d -1 -p RTS -e 44 -c 2 -a 0 -i 0 -k MAC
r -t 134.416114448 -s 1 -d -1 -p RTS -e 44 -c 2 -a 0 -i 0 -k MAC
+ -t 134.416124448 -s 1 -d -1 -p CTS -e 38 -c 2 -a 0 -i 0 -k MAC 
- -t 134.416124448 -s 1 -d -1 -p CTS -e 38 -c 2 -a 0 -i 0 -k MAC
h -t 134.416124448 -s 1 -d -1 -p CTS -e 38 -c 2 -a 0 -i 0 -k MAC
r -t 134.416428448 -s 0 -d -1 -p CTS -e 38 -c 2 -a 0 -i 0 -k MAC
+ -t 134.416438448 -s 0 -d -1 -p cbr -e 570 -c 2 -a 0 -i 15 -k MAC 
- -t 134.416438448 -s 0 -d -1 -p cbr -e 570 -c 2 -a 0 -i 15 -k MAC
h -t 134.416438448 -s 0 -d -1 -p cbr -e 570 -c 2 -a 0 -i 15 -k MAC
r -t 134.420998448 -s 1 -d -1 -p cbr -e 512 -c 2 -a 0 -i 15 -k MAC
+ -t 134.421008448 -s 1 -d -1 -p ACK -e 38 -c 2 -a 0 -i 0 -k MAC 
- -t 134.421008448 -s 1 -d -1 -p ACK -e 38 -c 2 -a 0 -i 0 -k MAC
h -t 134.421008448 -s 1 -d -1 -p ACK -e 38 -c 2 -a 0 -i 0 -k MAC
r -t 134.421023448 -s 1 -d -1 -p cbr -e 512 -c 2 -a 0 -i 15 -k AGT
r -t 134.421312448 -s 0 -d -1 -p ACK -e 38 -c 2 -a 0 -i 0 -k MAC
+ -t 146.101646378 -s 0 -d -1 -p cbr -e 512 -c 2 -a 0 -i 16 -k AGT 
- -t 146.101646378 -s 0 -d -1 -p cbr -e 512 -c 2 -a 0 -i 16 -k AGT
h -t 146.101646378 -s 0 -d -1 -p cbr -e 512 -c 2 -a 0 -i 16 -k AGT
+ -t 146.101646378 -s 0 -d -1 -p cbr -e 512 -c 2 -a 0 -i 16 -k RTR 
- -t 146.101646378 -s 0 -d -1 -p cbr -e 512 -c 2 -a 0 -i 16 -k RTR
h -t 146.101646378 -s 0 -d -1 -p cbr -e 512 -c 2 -a 0 -i 16 -k RTR
+ -t 146.101941378 -s 0 -d -1 -p RTS -e 44 -c 2 -a 0 -i 0 -k MAC 
- -t 146.101941378 -s 0 -d -1 -p RTS -e 44 -c 2 -a 0 -i 0 -k MAC
h -t 146.101941378 -s 0 -d -1 -p RTS -e 44 -c 2 -a 0 -i 0 -k MAC
r -t 146.102293378 -s 1 -d -1 -p RTS -e 44 -c 2 -a 0 -i 0 -k MAC
+ -t 146.102303378 -s 1 -d -1 -p CTS -e 38 -c 2 -a 0 -i 0 -k MAC 
- -t 146.102303378 -s 1 -d -1 -p CTS -e 38 -c 2 -a 0 -i 0 -k MAC
h -t 146.102303378 -s 1 -d -1 -p CTS -e 38 -c 2 -a 0 -i 0 -k MAC
r -t 146.102607378 -s 0 -d -1 -p CTS -e 38 -c 2 -a 0 -i 0 -k MAC
+ -t 146.102617378 -s 0 -d -1 -p cbr -e 570 -c 2 -a 0 -i 16 -k MAC 
- -t 146.102617378 -s 0 -d -1 -p cbr -e 570 -c 2 -a 0 -i 16 -k MAC
h -t 146.102617378 -s 0 -d -1 -p cbr -e 570 -c 2 -a 0 -i 16 -k MAC
r -t 146.107177378 -s 1 -d -1 -p cbr -e 512 -c 2 -a 0 -i 16 -k MAC
+ -t 146.107187378 -s 1 -d -1 -p ACK -e 38 -c 2 -a 0 -i 0 -k MAC 
- -t 146.107187378 -s 1 -d -1 -p ACK -e 38 -c 2 -a 0 -i 0 -k MAC
h -t 146.107187378 -s 1 -d -1 -p ACK -e 38 -c 2 -a 0 -i 0 -k MAC
r -t 146.107202378 -s 1 -d -1 -p cbr -e 512 -c 2 -a 0 -i 16 -k AGT
r -t 146.107491378 -s 0 -d -1 -p ACK -e 38 -c 2 -a 0 -i 0 -k MAC
+ -t 156.549866048 -s 0 -d -1 -p cbr -e 512 -c 2 -a 0 -i 17 -k AGT 
- -t 156.549866048 -s 0 -d -1 -p cbr -e 512 -c 2 -a 0 -i 17 -k AGT
h -t 156.549866048 -s 0 -d -1 -p cbr -e 512 -c 2 -a 0 -i 17 -k AGT
+ -t 156.549866048 -s 0 -d -1 -p cbr -e 512 -c 2 -a 0 -i 17 -k RTR 
- -t 156.549866048 -s 0 -d -1 -p cbr -e 512 -c 2 -a 0 -i 17 -k RTR
h -t 156.549866048 -s 0 -d -1 -p cbr -e 512 -c 2 -a 0 -i 17 -k RTR
+ -t 156.550161048 -s 0 -d -1 -p RTS -e 44 -c 2 -a 0 -i 0 -k MAC 
- -t 156.550161048 -s 0 -d -1 -p RTS -e 44 -c 2 -a 0 -i 0 -k MAC
h -t 156.550161048 -s 0 -d -1 -p RTS -e 44 -c 2 -a 0 -i 0 -k MAC
r -t 156.550513048 -s 1 -d -1 -p RTS -e 44 -c 2 -a 0 -i 0 -k MAC
+ -t 156.550523048 -s 1 -d -1 -p CTS -e 38 -c 2 -a 0 -i 0 -k MAC 
- -t 156.550523048 -s 1 -d -1 -p CTS -e 38 -c 2 -a 0 -i 0 -k MAC
h -t 156.550523048 -s 1 -d -1 -p CTS -e 38 -c 2 -a 0 -i 0 -k MAC
r -t 156.550827048 -s 0 -d -1 -p CTS -e 38 -c 2 -a 0 -i 0 -k MAC
+ -t 156.550837048 -s 0 -d -1 -p cbr -e 570 -c 2 -a 0 -i 17 -k MAC 
- -t 156.550837048 -s 0 -d -1 -p cbr -e 570 -c 2 -a 0 -i 17 -k MAC
h -t 156.550837048 -s 0 -d -1 -p cbr -e 570 -c 2 -a 0 -i 17 -k MAC
r -t 156.555397048 -s 1 -d -1 -p cbr -e 512 -c 2 -a 0 -i 17 -k MAC
+ -t 156.555407048 -s 1 -d -1 -p ACK -e 38 -c 2 -a 0 -i 0 -k MAC 
- -t 156.555407048 -s 1 -d -1 -p ACK -e 38 -c 2 -a 0 -i 0 -k MAC
h -t 156.555407048 -s 1 -d -1 -p ACK -e 38 -c 2 -a 0 -i 0 -k MAC
r -t 156.555422048 -s 1 -d -1 -p cbr -e 512 -c 2 -a 0 -i 17 -k AGT
r -t 156.555711048 -s 0 -d -1 -p ACK -e 38 -c 2 -a 0 -i 0 -k MAC
+ -t 167.098262784 -s 0 -d -1 -p cbr -e 512 -c 2 -a 0 -i 18 -k AGT 
- -t 167.098262784 -s 0 -d -1 -p cbr -e 512 -c 2 -a 0 -i 18 -k AGT
h -t 167.098262784 -s 0 -d -1 -p cbr -e 512 -c 2 -a 0 -i 18 -k AGT
+ -t 167.098262784 -s 0 -d -1 -p cbr -e 512 -c 2 -a 0 -i 18 -k RTR 
- -t 167.098262784 -s 0 -d -1 -p cbr -e 512 -c 2 -a 0 -i 18 -k RTR
h -t 167.098262784 -s 0 -d -1 -p cbr -e 512 -c 2 -a 0 -i 18 -k RTR
+ -t 167.098337784 -s 0 -d -1 -p RTS -e 44 -c 2 -a 0 -i 0 -k MAC 
- -t 167.098337784 -s 0 -d -1 -p RTS -e 44 -c 2 -a 0 -i 0 -k MAC
h -t 167.098337784 -s 0 -d -1 -p RTS -e 44 -c 2 -a 0 -i 0 -k MAC
r -t 167.098689784 -s 1 -d -1 -p RTS -e 44 -c 2 -a 0 -i 0 -k MAC
+ -t 167.098699784 -s 1 -d -1 -p CTS -e 38 -c 2 -a 0 -i 0 -k MAC 
- -t 167.098699784 -s 1 -d -1 -p CTS -e 38 -c 2 -a 0 -i 0 -k MAC
h -t 167.098699784 -s 1 -d -1 -p CTS -e 38 -c 2 -a 0 -i 0 -k MAC
r -t 167.099003784 -s 0 -d -1 -p CTS -e 38 -c 2 -a 0 -i 0 -k MAC
+ -t 167.099013784 -s 0 -d -1 -p cbr -e 570 -c 2 -a 0 -i 18 -k MAC 
- -t 167.099013784 -s 0 -d -1 -p cbr -e 570 -c 2 -a 0 -i 18 -k MAC
h -t 167.099013784 -s 0 -d -1 -p cbr -e 570 -c 2 -a 0 -i 18 -k MAC
r -t 167.103573784 -s 1 -d -1 -p cbr -e 512 -c 2 -a 0 -i 18 -k MAC
+ -t 167.103583784 -s 1 -d -1 -p ACK -e 38 -c 2 -a 0 -i 0 -k MAC 
- -t 167.103583784 -s 1 -d -1 -p ACK -e 38 -c 2 -a 0 -i 0 -k MAC
h -t 167.103583784 -s 1 -d -1 -p ACK -e 38 -c 2 -a 0 -i 0 -k MAC
r -t 167.103598784 -s 1 -d -1 -p cbr -e 512 -c 2 -a 0 -i 18 -k AGT
r -t 167.103887784 -s 0 -d -1 -p ACK -e 38 -c 2 -a 0 -i 0 -k MAC
+ -t 175.371432776 -s 0 -d -1 -p cbr -e 512 -c 2 -a 0 -i 19 -k AGT 