s 1.000000000 _0_ AGT  --- 0 cbr 512 [0 0 0 0] [energy 1000.000000 ei 0.000 es 0.000 et 0.000 er 0.000] ------- [0:0 1:0 32 0] [0] 0 0
r 1.000000000 _0_ RTR  --- 0 cbr 512 [0 0 0 0] [energy 1000.000000 ei 0.000 es 0.000 et 0.000 er 0.000] ------- [0:0 1:0 32 0] [0] 0 0
s 1.000000000 _0_ RTR  --- 0 cbr 512 [0 0 0 0] [energy 1000.000000 ei 0.000 es 0.000 et 0.000 er 0.000] ------- [0:0 1:0 32 0] [0] 0 0
s 1.000095000 _0_ MAC  --- 0 ARP 86 [0 ffffffff 0 806] [energy 1000.000000 ei 0.000 es 0.000 et 0.000 er 0.000] ------- [REQUEST 0/0 0/1]
N -t 1.000095 -n 1 -e 998.999217
r 1.000783000 _1_ MAC  --- 0 ARP 28 [0 ffffffff 0 806] [energy 998.999217 ei 1.000 es 0.000 et 0.000 er 0.001] ------- [REQUEST 0/0 0/1]
s 1.001138000 _1_ MAC  --- 0 RTS 44 [52e 0 1 0] [energy 998.999217 ei 1.000 es 0.000 et 0.000 er 0.001] 
N -t 1.001138 -n 0 -e 998.998510
r 1.001490000 _0_ MAC  --- 0 RTS 44 [52e 0 1 0] [energy 998.998510 ei 1.000 es 0.000 et 0.001 er 0.000] 
s 1.001500000 _0_ MAC  --- 0 CTS 38 [3f4 1 0 0] [energy 998.998510 ei 1.000 es 0.000 et 0.001 er 0.000] 
N -t 1.001500 -n 1 -e 998.998196
r 1.001804000 _1_ MAC  --- 0 CTS 38 [3f4 1 0 0] [energy 998.998196 ei 1.000 es 0.000 et 0.000 er 0.001] 
s 1.001814000 _1_ MAC  --- 0 ARP 86 [13a 0 1 806] [energy 998.998196 ei 1.000 es 0.000 et 0.000 er 0.001] ------- [REPLY 1/1 0/0]
N -t 1.001814 -n 0 -e 998.997498
r 1.002502000 _0_ MAC  --- 0 ARP 28 [13a 0 1 806] [energy 998.997498 ei 1.000 es 0.000 et 0.001 er 0.001] ------- [REPLY 1/1 0/0]
s 1.002512000 _0_ MAC  --- 0 ACK 38 [0 1 0 0] [energy 998.997498 ei 1.000 es 0.000 et 0.001 er 0.001] 
N -t 1.002512 -n 1 -e 998.997184
r 1.002816000 _1_ MAC  --- 0 ACK 38 [0 1 0 0] [energy 998.997184 ei 1.000 es 0.000 et 0.001 er 0.001] 
s 1.003126000 _0_ MAC  --- 0 RTS 44 [144e 1 0 0] [energy 998.997184 ei 1.000 es 0.000 et 0.001 er 0.001] 
N -t 1.003126 -n 1 -e 998.996522
r 1.003478000 _1_ MAC  --- 0 RTS 44 [144e 1 0 0] [energy 998.996522 ei 1.001 es 0.000 et 0.001 er 0.002] 
s 1.003488000 _1_ MAC  --- 0 CTS 38 [1314 0 0 0] [energy 998.996522 ei 1.001 es 0.000 et 0.001 er 0.002] 
N -t 1.003488 -n 0 -e 998.996208
r 1.003792000 _0_ MAC  --- 0 CTS 38 [1314 0 0 0] [energy 998.996208 ei 1.001 es 0.000 et 0.002 er 0.001] 
s 1.003802000 _0_ MAC  --- 0 cbr 570 [13a 1 0 800] [energy 998.996208 ei 1.001 es 0.000 et 0.002 er 0.001] ------- [0:0 1:0 32 0] [0] 0 0
N -t 1.003802 -n 1 -e 998.991638
r 1.008362000 _1_ MAC  --- 0 cbr 512 [13a 1 0 800] [energy 998.991638 ei 1.001 es 0.000 et 0.001 er 0.006] ------- [0:0 1:0 32 0] [0] 1 0
s 1.008372000 _1_ MAC  --- 0 ACK 38 [0 0 0 0] [energy 998.991638 ei 1.001 es 0.000 et 0.001 er 0.006] 
N -t 1.008372 -n 0 -e 998.991324
r 1.008387000 _1_ AGT  --- 0 cbr 512 [13a 1 0 800] [energy 998.991324 ei 1.001 es 0.000 et 0.002 er 0.006] ------- [0:0 1:0 32 0] [0] 1 0
r 1.008676000 _0_ MAC  --- 0 ACK 38 [0 0 0 0] [energy 998.991324 ei 1.001 es 0.000 et 0.006 er 0.002] 
s 6.003395772 _0_ AGT  --- 1 cbr 512 [0 0 0 0] [energy 998.991324 ei 1.001 es 0.000 et 0.006 er 0.002] ------- [0:0 1:0 32 0] [1] 0 0
r 6.003395772 _0_ RTR  --- 1 cbr 512 [0 0 0 0] [energy 998.991324 ei 1.001 es 0.000 et 0.006 er 0.002] ------- [0:0 1:0 32 0] [1] 0 0
s 6.003395772 _0_ RTR  --- 1 cbr 512 [0 0 0 0] [energy 998.991324 ei 1.001 es 0.000 et 0.006 er 0.002] ------- [0:0 1:0 32 0] [1] 0 0
s 6.003670772 _0_ MAC  --- 0 RTS 44 [144e 1 0 0] [energy 998.991324 ei 1.001 es 0.000 et 0.006 er 0.002] 
N -t 6.003671 -n 1 -e 993.995977
r 6.004022772 _1_ MAC  --- 0 RTS 44 [144e 1 0 0] [energy 993.995977 ei 5.996 es 0.000 et 0.002 er 0.007] 
s 6.004032772 _1_ MAC  --- 0 CTS 38 [1314 0 0 0] [energy 993.995977 ei 5.996 es 0.000 et 0.002 er 0.007] 
N -t 6.004033 -n 0 -e 993.995663
r 6.004336772 _0_ MAC  --- 0 CTS 38 [1314 0 0 0] [energy 993.995663 ei 5.996 es 0.000 et 0.007 er 0.002] 
s 6.004346772 _0_ MAC  --- 1 cbr 570 [13a 1 0 800] [energy 993.995663 ei 5.996 es 0.000 et 0.007 er 0.002] ------- [0:0 1:0 32 0] [1] 0 0
N -t 6.004347 -n 1 -e 993.991093
r 6.008906772 _1_ MAC  --- 1 cbr 512 [13a 1 0 800] [energy 993.991093 ei 5.996 es 0.000 et 0.002 er 0.011] ------- [0:0 1:0 32 0] [1] 1 0
s 6.008916772 _1_ MAC  --- 0 ACK 38 [0 0 0 0] [energy 993.991093 ei 5.996 es 0.000 et 0.002 er 0.011] 
N -t 6.008917 -n 0 -e 993.990779
r 6.008931772 _1_ AGT  --- 1 cbr 512 [13a 1 0 800] [energy 993.990779 ei 5.996 es 0.000 et 0.002 er 0.011] ------- [0:0 1:0 32 0] [1] 1 0
r 6.009220772 _0_ MAC  --- 0 ACK 38 [0 0 0 0] [energy 993.990779 ei 5.996 es 0.000 et 0.011 er 0.002] 
s 14.133013489 _0_ AGT  --- 2 cbr 512 [0 0 0 0] [energy 993.990779 ei 5.996 es 0.000 et 0.011 er 0.002] ------- [0:0 1:0 32 0] [2] 0 0
r 14.133013489 _0_ RTR  --- 2 cbr 512 [0 0 0 0] [energy 993.990779 ei 5.996 es 0.000 et 0.011 er 0.002] ------- [0:0 1:0 32 0] [2] 0 0
s 14.133013489 _0_ RTR  --- 2 cbr 512 [0 0 0 0] [energy 993.990779 ei 5.996 es 0.000 et 0.011 er 0.002] ------- [0:0 1:0 32 0] [2] 0 0
s 14.133348489 _0_ MAC  --- 0 RTS 44 [144e 1 0 0] [energy 993.990779 ei 5.996 es 0.000 et 0.011 er 0.002] 
N -t 14.133348 -n 1 -e 985.866300
r 14.133700489 _1_ MAC  --- 0 RTS 44 [144e 1 0 0] [energy 985.866300 ei 14.120 es 0.000 et 0.002 er 0.011] 
s 14.133710489 _1_ MAC  --- 0 CTS 38 [1314 0 0 0] [energy 985.866300 ei 14.120 es 0.000 et 0.002 er 0.011] 
N -t 14.133710 -n 0 -e 985.865986
r 14.134014489 _0_ MAC  --- 0 CTS 38 [1314 0 0 0] [energy 985.865986 ei 14.120 es 0.000 et 0.011 er 0.003] 
s 14.134024489 _0_ MAC  --- 2 cbr 570 [13a 1 0 800] [energy 985.865986 ei 14.120 es 0.000 et 0.011 er 0.003] ------- [0:0 1:0 32 0] [2] 0 0
N -t 14.134024 -n 1 -e 985.861416
r 14.138584489 _1_ MAC  --- 2 cbr 512 [13a 1 0 800] [energy 985.861416 ei 14.120 es 0.000 et 0.003 er 0.016] ------- [0:0 1:0 32 0] [2] 1 0
s 14.138594489 _1_ MAC  --- 0 ACK 38 [0 0 0 0] [energy 985.861416 ei 14.120 es 0.000 et 0.003 er 0.016] 
N -t 14.138594 -n 0 -e 985.861102
r 14.138609489 _1_ AGT  --- 2 cbr 512 [13a 1 0 800] [energy 985.861102 ei 14.120 es 0.000 et 0.003 er 0.016] ------- [0:0 1:0 32 0] [2] 1 0
r 14.138898489 _0_ MAC  --- 0 ACK 38 [0 0 0 0] [energy 985.861102 ei 14.120 es 0.000 et 0.016 er 0.003] 
s 25.521664921 _0_ AGT  --- 3 cbr 512 [0 0 0 0] [energy 985.861102 ei 14.120 es 0.000 et 0.016 er 0.003] ------- [0:0 1:0 32 0] [3] 0 0
r 25.521664921 _0_ RTR  --- 3 cbr 512 [0 0 0 0] [energy 985.861102 ei 14.120 es 0.000 et 0.016 er 0.003] ------- [0:0 1:0 32 0] [3] 0 0
s 25.521664921 _0_ RTR  --- 3 cbr 512 [0 0 0 0] [energy 985.861102 ei 14.120 es 0.000 et 0.016 er 0.003] ------- [0:0 1:0 32 0] [3] 0 0
s 25.522279921 _0_ MAC  --- 0 RTS 44 [144e 1 0 0] [energy 985.861102 ei 14.120 es 0.000 et 0.016 er 0.003] 
N -t 25.522280 -n 1 -e 974.477368
r 25.522631921 _1_ MAC  --- 0 RTS 44 [144e 1 0 0] [energy 974.477368 ei 25.503 es 0.000 et 0.003 er 0.016] 
s 25.522641921 _1_ MAC  --- 0 CTS 38 [1314 0 0 0] [energy 974.477368 ei 25.503 es 0.000 et 0.003 er 0.016] 
N -t 25.522642 -n 0 -e 974.477054
r 25.522945921 _0_ MAC  --- 0 CTS 38 [1314 0 0 0] [energy 974.477054 ei 25.503 es 0.000 et 0.016 er 0.003] 
s 25.522955921 _0_ MAC  --- 3 cbr 570 [13a 1 0 800] [energy 974.477054 ei 25.503 es 0.000 et 0.016 er 0.003] ------- [0:0 1:0 32 0] [3] 0 0
N -t 25.522956 -n 1 -e 974.472484
r 25.527515921 _1_ MAC  --- 3 cbr 512 [13a 1 0 800] [energy 974.472484 ei 25.503 es 0.000 et 0.003 er 0.021] ------- [0:0 1:0 32 0] [3] 1 0
s 25.527525921 _1_ MAC  --- 0 ACK 38 [0 0 0 0] [energy 974.472484 ei 25.503 es 0.000 et 0.003 er 0.021] 
N -t 25.527526 -n 0 -e 974.472170
r 25.527540921 _1_ AGT  --- 3 cbr 512 [13a 1 0 800] [energy 974.472170 ei 25.503 es 0.000 et 0.003 er 0.021] ------- [0:0 1:0 32 0] [3] 1 0
r 25.527829921 _0_ MAC  --- 0 ACK 38 [0 0 0 0] [energy 974.472170 ei 25.503 es 0.000 et 0.021 er 0.003] 
s 32.163118987 _0_ AGT  --- 4 cbr 512 [0 0 0 0] [energy 974.472170 ei 25.503 es 0.000 et 0.021 er 0.003] ------- [0:0 1:0 32 0] [4] 0 0
r 32.163118987 _0_ RTR  --- 4 cbr 512 [0 0 0 0] [energy 974.472170 ei 25.503 es 0.000 et 0.021 er 0.003] ------- [0:0 1:0 32 0] [4] 0 0
s 32.163118987 _0_ RTR  --- 4 cbr 512 [0 0 0 0] [energy 974.472170 ei 25.503 es 0.000 et 0.021 er 0.003] ------- [0:0 1:0 32 0] [4] 0 0
s 32.163433987 _0_ MAC  --- 0 RTS 44 [144e 1 0 0] [energy 974.472170 ei 25.503 es 0.000 et 0.021 er 0.003] 
N -t 32.163434 -n 1 -e 967.836214
r 32.163785987 _1_ MAC  --- 0 RTS 44 [144e 1 0 0] [energy 967.836214 ei 32.139 es 0.000 et 0.003 er 0.021] 
s 32.163795987 _1_ MAC  --- 0 CTS 38 [1314 0 0 0] [energy 967.836214 ei 32.139 es 0.000 et 0.003 er 0.021] 
N -t 32.163796 -n 0 -e 967.835900
r 32.164099987 _0_ MAC  --- 0 CTS 38 [1314 0 0 0] [energy 967.835900 ei 32.139 es 0.000 et 0.021 er 0.004] 
s 32.164109987 _0_ MAC  --- 4 cbr 570 [13a 1 0 800] [energy 967.835900 ei 32.139 es 0.000 et 0.021 er 0.004] ------- [0:0 1:0 32 0] [4] 0 0
N -t 32.164110 -n 1 -e 967.831330
r 32.168669987 _1_ MAC  --- 4 cbr 512 [13a 1 0 800] [energy 967.831330 ei 32.139 es 0.000 et 0.004 er 0.026] ------- [0:0 1:0 32 0] [4] 1 0
s 32.168679987 _1_ MAC  --- 0 ACK 38 [0 0 0 0] [energy 967.831330 ei 32.139 es 0.000 et 0.004 er 0.026] 
N -t 32.168680 -n 0 -e 967.831016
r 32.168694987 _1_ AGT  --- 4 cbr 512 [13a 1 0 800] [energy 967.831016 ei 32.139 es 0.000 et 0.004 er 0.026] ------- [0:0 1:0 32 0] [4] 1 0
r 32.168983987 _0_ MAC  --- 0 ACK 38 [0 0 0 0] [energy 967.831016 ei 32.139 es 0.000 et 0.026 er 0.004] 
s 38.301201473 _0_ AGT  --- 5 cbr 512 [0 0 0 0] [energy 967.831016 ei 32.139 es 0.000 et 0.026 er 0.004] ------- [0:0 1:0 32 0] [5] 0 0
r 38.301201473 _0_ RTR  --- 5 cbr 512 [0 0 0 0] [energy 967.831016 ei 32.139 es 0.000 et 0.026 er 0.004] ------- [0:0 1:0 32 0] [5] 0 0
s 38.301201473 _0_ RTR  --- 5 cbr 512 [0 0 0 0] [energy 967.831016 ei 32.139 es 0.000 et 0.026 er 0.004] ------- [0:0 1:0 32 0] [5] 0 0
s 38.301616473 _0_ MAC  --- 0 RTS 44 [144e 1 0 0] [energy 967.831016 ei 32.139 es 0.000 et 0.026 er 0.004] 
N -t 38.301616 -n 1 -e 961.698032
r 38.301968473 _1_ MAC  --- 0 RTS 44 [144e 1 0 0] [energy 961.698032 ei 38.272 es 0.000 et 0.004 er 0.026] 
s 38.301978473 _1_ MAC  --- 0 CTS 38 [1314 0 0 0] [energy 961.698032 ei 38.272 es 0.000 et 0.004 er 0.026] 
N -t 38.301978 -n 0 -e 961.697718
r 38.302282473 _0_ MAC  --- 0 CTS 38 [1314 0 0 0] [energy 961.697718 ei 38.272 es 0.000 et 0.026 er 0.004] 
s 38.302292473 _0_ MAC  --- 5 cbr 570 [13a 1 0 800] [energy 961.697718 ei 38.272 es 0.000 et 0.026 er 0.004] ------- [0:0 1:0 32 0] [5] 0 0
N -t 38.302292 -n 1 -e 961.693148
r 38.306852473 _1_ MAC  --- 5 cbr 512 [13a 1 0 800] [energy 961.693148 ei 38.272 es 0.000 et 0.004 er 0.031] ------- [0:0 1:0 32 0] [5] 1 0
s 38.306862473 _1_ MAC  --- 0 ACK 38 [0 0 0 0] [energy 961.693148 ei 38.272 es 0.000 et 0.004 er 0.031] 
N -t 38.306862 -n 0 -e 961.692834
r 38.306877473 _1_ AGT  --- 5 cbr 512 [13a 1 0 800] [energy 961.692834 ei 38.272 es 0.000 et 0.005 er 0.031] ------- [0:0 1:0 32 0] [5] 1 0
r 38.307166473 _0_ MAC  --- 0 ACK 38 [0 0 0 0] [energy 961.692834 ei 38.272 es 0.000 et 0.031 er 0.005] 
s 45.049254011 _0_ AGT  --- 6 cbr 512 [0 0 0 0] [energy 961.692834 ei 38.272 es 0.000 et 0.031 er 0.005] ------- [0:0 1:0 32 0] [6] 0 0
r 45.049254011 _0_ RTR  --- 6 cbr 512 [0 0 0 0] [energy 961.692834 ei 38.272 es 0.000 et 0.031 er 0.005] ------- [0:0 1:0 32 0] [6] 0 0
s 45.049254011 _0_ RTR  --- 6 cbr 512 [0 0 0 0] [energy 961.692834 ei 38.272 es 0.000 et 0.031 er 0.005] ------- [0:0 1:0 32 0] [6] 0 0
s 45.049549011 _0_ MAC  --- 0 RTS 44 [144e 1 0 0] [energy 961.692834 ei 38.272 es 0.000 et 0.031 er 0.005] 
N -t 45.049549 -n 1 -e 954.950099
r 45.049901011 _1_ MAC  --- 0 RTS 44 [144e 1 0 0] [energy 954.950099 ei 45.014 es 0.000 et 0.005 er 0.031] 
s 45.049911011 _1_ MAC  --- 0 CTS 38 [1314 0 0 0] [energy 954.950099 ei 45.014 es 0.000 et 0.005 er 0.031] 
N -t 45.049911 -n 0 -e 954.949785
r 45.050215011 _0_ MAC  --- 0 CTS 38 [1314 0 0 0] [energy 954.949785 ei 45.014 es 0.000 et 0.031 er 0.005] 
s 45.050225011 _0_ MAC  --- 6 cbr 570 [13a 1 0 800] [energy 954.949785 ei 45.014 es 0.000 et 0.031 er 0.005] ------- [0:0 1:0 32 0] [6] 0 0
N -t 45.050225 -n 1 -e 954.945215
r 45.054785011 _1_ MAC  --- 6 cbr 512 [13a 1 0 800] [energy 954.945215 ei 45.014 es 0.000 et 0.005 er 0.036] ------- [0:0 1:0 32 0] [6] 1 0
s 45.054795011 _1_ MAC  --- 0 ACK 38 [0 0 0 0] [energy 954.945215 ei 45.014 es 0.000 et 0.005 er 0.036] 
N -t 45.054795 -n 0 -e 954.944901
r 45.054810011 _1_ AGT  --- 6 cbr 512 [13a 1 0 800] [energy 954.944901 ei 45.014 es 0.000 et 0.005 er 0.036] ------- [0:0 1:0 32 0] [6] 1 0
r 45.055099011 _0_ MAC  --- 0 ACK 38 [0 0 0 0] [energy 954.944901 ei 45.014 es 0.000 et 0.036 er 0.005] 
s 53.536664267 _0_ AGT  --- 7 cbr 512 [0 0 0 0] [energy 954.944901 ei 45.014 es 0.000 et 0.036 er 0.005] ------- [0:0 1:0 32 0] [7] 0 0
r 53.536664267 _0_ RTR  --- 7 cbr 512 [0 0 0 0] [energy 954.944901 ei 45.014 es 0.000 et 0.036 er 0.005] ------- [0:0 1:0 32 0] [7] 0 0
s 53.536664267 _0_ RTR  --- 7 cbr 512 [0 0 0 0] [energy 954.944901 ei 45.014 es 0.000 et 0.036 er 0.005] ------- [0:0 1:0 32 0] [7] 0 0
s 53.537179267 _0_ MAC  --- 0 RTS 44 [144e 1 0 0] [energy 954.944901 ei 45.014 es 0.000 et 0.036 er 0.005] 
N -t 53.537179 -n 1 -e 946.462469
r 53.537531267 _1_ MAC  --- 0 RTS 44 [144e 1 0 0] [energy 946.462469 ei 53.496 es 0.000 et 0.005 er 0.036] 
s 53.537541267 _1_ MAC  --- 0 CTS 38 [1314 0 0 0] [energy 946.462469 ei 53.496 es 0.000 et 0.005 er 0.036] 
N -t 53.537541 -n 0 -e 946.462155
r 53.537845267 _0_ MAC  --- 0 CTS 38 [1314 0 0 0] [energy 946.462155 ei 53.496 es 0.000 et 0.036 er 0.006] 
s 53.537855267 _0_ MAC  --- 7 cbr 570 [13a 1 0 800] [energy 946.462155 ei 53.496 es 0.000 et 0.036 er 0.006] ------- [0:0 1:0 32 0] [7] 0 0
N -t 53.537855 -n 1 -e 946.457585
r 53.542415267 _1_ MAC  --- 7 cbr 512 [13a 1 0 800] [energy 946.457585 ei 53.496 es 0.000 et 0.006 er 0.041] ------- [0:0 1:0 32 0] [7] 1 0
s 53.542425267 _1_ MAC  --- 0 ACK 38 [0 0 0 0] [energy 946.457585 ei 53.496 es 0.000 et 0.006 er 0.041] 
N -t 53.542425 -n 0 -e 946.457271
r 53.542440267 _1_ AGT  --- 7 cbr 512 [13a 1 0 800] [energy 946.457271 ei 53.496 es 0.000 et 0.006 er 0.041] ------- [0:0 1:0 32 0] [7] 1 0
r 53.542729267 _0_ MAC  --- 0 ACK 38 [0 0 0 0] [energy 946.457271 ei 53.496 es 0.000 et 0.041 er 0.006] 
s 63.723152215 _0_ AGT  --- 8 cbr 512 [0 0 0 0] [energy 946.457271 ei 53.496 es 0.000 et 0.041 er 0.006] ------- [0:0 1:0 32 0] [8] 0 0
r 63.723152215 _0_ RTR  --- 8 cbr 512 [0 0 0 0] [energy 946.457271 ei 53.496 es 0.000 et 0.041 er 0.006] ------- [0:0 1:0 32 0] [8] 0 0
s 63.723152215 _0_ RTR  --- 8 cbr 512 [0 0 0 0] [energy 946.457271 ei 53.496 es 0.000 et 0.041 er 0.006] ------- [0:0 1:0 32 0] [8] 0 0
s 63.723627215 _0_ MAC  --- 0 RTS 44 [144e 1 0 0] [energy 946.457271 ei 53.496 es 0.000 et 0.041 er 0.006] 
N -t 63.723627 -n 1 -e 936.276021
r 63.723979215 _1_ MAC  --- 0 RTS 44 [144e 1 0 0] [energy 936.276021 ei 63.677 es 0.000 et 0.006 er 0.041] 
s 63.723989215 _1_ MAC  --- 0 CTS 38 [1314 0 0 0] [energy 936.276021 ei 63.677 es 0.000 et 0.006 er 0.041] 
N -t 63.723989 -n 0 -e 936.275707
r 63.724293215 _0_ MAC  --- 0 CTS 38 [1314 0 0 0] [energy 936.275707 ei 63.677 es 0.000 et 0.041 er 0.006] 
s 63.724303215 _0_ MAC  --- 8 cbr 570 [13a 1 0 800] [energy 936.275707 ei 63.677 es 0.000 et 0.041 er 0.006] ------- [0:0 1:0 32 0] [8] 0 0
N -t 63.724303 -n 1 -e 936.271137
r 63.728863215 _1_ MAC  --- 8 cbr 512 [13a 1 0 800] [energy 936.271137 ei 63.677 es 0.000 et 0.006 er 0.046] ------- [0:0 1:0 32 0] [8] 1 0
s 63.728873215 _1_ MAC  --- 0 ACK 38 [0 0 0 0] [energy 936.271137 ei 63.677 es 0.000 et 0.006 er 0.046] 
N -t 63.728873 -n 0 -e 936.270823
r 63.728888215 _1_ AGT  --- 8 cbr 512 [13a 1 0 800] [energy 936.270823 ei 63.677 es 0.000 et 0.007 er 0.046] ------- [0:0 1:0 32 0] [8] 1 0
r 63.729177215 _0_ MAC  --- 0 ACK 38 [0 0 0 0] [energy 936.270823 ei 63.677 es 0.000 et 0.046 er 0.007] 
s 77.343825024 _0_ AGT  --- 9 cbr 512 [0 0 0 0] [energy 936.270823 ei 63.677 es 0.000 et 0.046 er 0.007] ------- [0:0 1:0 32 0] [9] 0 0
r 77.343825024 _0_ RTR  --- 9 cbr 512 [0 0 0 0] [energy 936.270823 ei 63.677 es 0.000 et 0.046 er 0.007] ------- [0:0 1:0 32 0] [9] 0 0
s 77.343825024 _0_ RTR  --- 9 cbr 512 [0 0 0 0] [energy 936.270823 ei 63.677 es 0.000 et 0.046 er 0.007] ------- [0:0 1:0 32 0] [9] 0 0
s 77.343940024 _0_ MAC  --- 0 RTS 44 [144e 1 0 0] [energy 936.270823 ei 63.677 es 0.000 et 0.046 er 0.007] 
N -t 77.343940 -n 1 -e 922.655708
r 77.344292024 _1_ MAC  --- 0 RTS 44 [144e 1 0 0] [energy 922.655708 ei 77.292 es 0.000 et 0.007 er 0.046] 
s 77.344302024 _1_ MAC  --- 0 CTS 38 [1314 0 0 0] [energy 922.655708 ei 77.292 es 0.000 et 0.007 er 0.046] 
N -t 77.344302 -n 0 -e 922.655394
r 77.344606024 _0_ MAC  --- 0 CTS 38 [1314 0 0 0] [energy 922.655394 ei 77.292 es 0.000 et 0.046 er 0.007] 
s 77.344616024 _0_ MAC  --- 9 cbr 570 [13a 1 0 800] [energy 922.655394 ei 77.292 es 0.000 et 0.046 er 0.007] ------- [0:0 1:0 32 0] [9] 0 0
N -t 77.344616 -n 1 -e 922.650824
r 77.349176024 _1_ MAC  --- 9 cbr 512 [13a 1 0 800] [energy 922.650824 ei 77.292 es 0.000 et 0.007 er 0.050] ------- [0:0 1:0 32 0] [9] 1 0
s 77.349186024 _1_ MAC  --- 0 ACK 38 [0 0 0 0] [energy 922.650824 ei 77.292 es 0.000 et 0.007 er 0.050] 
N -t 77.349186 -n 0 -e 922.650510
r 77.349201024 _1_ AGT  --- 9 cbr 512 [13a 1 0 800] [energy 922.650510 ei 77.292 es 0.000 et 0.007 er 0.050] ------- [0:0 1:0 32 0] [9] 1 0
r 77.349490024 _0_ MAC  --- 0 ACK 38 [0 0 0 0] [energy 922.650510 ei 77.292 es 0.000 et 0.050 er 0.007] 
s 84.756081304 _0_ AGT  --- 10 cbr 512 [0 0 0 0] [energy 922.650510 ei 77.292 es 0.000 et 0.050 er 0.007] ------- [0:0 1:0 32 0] [10] 0 0
r 84.756081304 _0_ RTR  --- 10 cbr 512 [0 0 0 0] [energy 922.650510 ei 77.292 es 0.000 et 0.050 er 0.007] ------- [0:0 1:0 32 0] [10] 0 0
s 84.756081304 _0_ RTR  --- 10 cbr 512 [0 0 0 0] [energy 922.650510 ei 77.292 es 0.000 et 0.050 er 0.007] ------- [0:0 1:0 32 0] [10] 0 0
s 84.756296304 _0_ MAC  --- 0 RTS 44 [144e 1 0 0] [energy 922.650510 ei 77.292 es 0.000 et 0.050 er 0.007] 
N -t 84.756296 -n 1 -e 915.243352
r 84.756648304 _1_ MAC  --- 0 RTS 44 [144e 1 0 0] [energy 915.243352 ei 84.699 es 0.000 et 0.007 er 0.051] 
s 84.756658304 _1_ MAC  --- 0 CTS 38 [1314 0 0 0] [energy 915.243352 ei 84.699 es 0.000 et 0.007 er 0.051] 
N -t 84.756658 -n 0 -e 915.243038
r 84.756962304 _0_ MAC  --- 0 CTS 38 [1314 0 0 0] [energy 915.243038 ei 84.699 es 0.000 et 0.051 er 0.007] 
s 84.756972304 _0_ MAC  --- 10 cbr 570 [13a 1 0 800] [energy 915.243038 ei 84.699 es 0.000 et 0.051 er 0.007] ------- [0:0 1:0 32 0] [10] 0 0
N -t 84.756972 -n 1 -e 915.238468
r 84.761532304 _1_ MAC  --- 10 cbr 512 [13a 1 0 800] [energy 915.238468 ei 84.699 es 0.000 et 0.007 er 0.055] ------- [0:0 1:0 32 0] [10] 1 0
s 84.761542304 _1_ MAC  --- 0 ACK 38 [0 0 0 0] [energy 915.238468 ei 84.699 es 0.000 et 0.007 er 0.055] 
N -t 84.761542 -n 0 -e 915.238154
r 84.761557304 _1_ AGT  --- 10 cbr 512 [13a 1 0 800] [energy 915.238154 ei 84.699 es 0.000 et 0.008 er 0.055] ------- [0:0 1:0 32 0] [10] 1 0
r 84.761846304 _0_ MAC  --- 0 ACK 38 [0 0 0 0] [energy 915.238154 ei 84.699 es 0.000 et 0.055 er 0.008] 
s 97.378400232 _0_ AGT  --- 11 cbr 512 [0 0 0 0] [energy 915.238154 ei 84.699 es 0.000 et 0.055 er 0.008] ------- [0:0 1:0 32 0] [11] 0 0
r 97.378400232 _0_ RTR  --- 11 cbr 512 [0 0 0 0] [energy 915.238154 ei 84.699 es 0.000 et 0.055 er 0.008] ------- [0:0 1:0 32 0] [11] 0 0
s 97.378400232 _0_ RTR  --- 11 cbr 512 [0 0 0 0] [energy 915.238154 ei 84.699 es 0.000 et 0.055 er 0.008] ------- [0:0 1:0 32 0] [11] 0 0
s 97.378675232 _0_ MAC  --- 0 RTS 44 [144e 1 0 0] [energy 915.238154 ei 84.699 es 0.000 et 0.055 er 0.008] 
N -t 97.378675 -n 1 -e 902.620973
r 97.379027232 _1_ MAC  --- 0 RTS 44 [144e 1 0 0] [energy 902.620973 ei 97.316 es 0.000 et 0.008 er 0.056] 
s 97.379037232 _1_ MAC  --- 0 CTS 38 [1314 0 0 0] [energy 902.620973 ei 97.316 es 0.000 et 0.008 er 0.056] 
N -t 97.379037 -n 0 -e 902.620659
r 97.379341232 _0_ MAC  --- 0 CTS 38 [1314 0 0 0] [energy 902.620659 ei 97.316 es 0.000 et 0.056 er 0.008] 
s 97.379351232 _0_ MAC  --- 11 cbr 570 [13a 1 0 800] [energy 902.620659 ei 97.316 es 0.000 et 0.056 er 0.008] ------- [0:0 1:0 32 0] [11] 0 0
N -t 97.379351 -n 1 -e 902.616089
r 97.383911232 _1_ MAC  --- 11 cbr 512 [13a 1 0 800] [energy 902.616089 ei 97.316 es 0.000 et 0.008 er 0.060] ------- [0:0 1:0 32 0] [11] 1 0
s 97.383921232 _1_ MAC  --- 0 ACK 38 [0 0 0 0] [energy 902.616089 ei 97.316 es 0.000 et 0.008 er 0.060] 
N -t 97.383921 -n 0 -e 902.615775
r 97.383936232 _1_ AGT  --- 11 cbr 512 [13a 1 0 800] [energy 902.615775 ei 97.316 es 0.000 et 0.008 er 0.060] ------- [0:0 1:0 32 0] [11] 1 0
r 97.384225232 _0_ MAC  --- 0 ACK 38 [0 0 0 0] [energy 902.615775 ei 97.316 es 0.000 et 0.060 er 0.008] 
s 103.470384951 _0_ AGT  --- 12 cbr 512 [0 0 0 0] [energy 902.615775 ei 97.316 es 0.000 et 0.060 er 0.008] ------- [0:0 1:0 32 0] [12] 0 0
r 103.470384951 _0_ RTR  --- 12 cbr 512 [0 0 0 0] [energy 902.615775 ei 97.316 es 0.000 et 0.060 er 0.008] ------- [0:0 1:0 32 0] [12] 0 0
s 103.470384951 _0_ RTR  --- 12 cbr 512 [0 0 0 0] [energy 902.615775 ei 97.316 es 0.000 et 0.060 er 0.008] ------- [0:0 1:0 32 0] [12] 0 0
s 103.470679951 _0_ MAC  --- 0 RTS 44 [144e 1 0 0] [energy 902.615775 ei 97.316 es 0.000 et 0.060 er 0.008] 
N -t 103.470680 -n 1 -e 896.528968
r 103.471031951 _1_ MAC  --- 0 RTS 44 [144e 1 0 0] [energy 896.528968 ei 103.402 es 0.000 et 0.008 er 0.061] 
s 103.471041951 _1_ MAC  --- 0 CTS 38 [1314 0 0 0] [energy 896.528968 ei 103.402 es 0.000 et 0.008 er 0.061] 
N -t 103.471042 -n 0 -e 896.528654
r 103.471345951 _0_ MAC  --- 0 CTS 38 [1314 0 0 0] [energy 896.528654 ei 103.402 es 0.000 et 0.061 er 0.009] 
s 103.471355951 _0_ MAC  --- 12 cbr 570 [13a 1 0 800] [energy 896.528654 ei 103.402 es 0.000 et 0.061 er 0.009] ------- [0:0 1:0 32 0] [12] 0 0
N -t 103.471356 -n 1 -e 896.524084
r 103.475915951 _1_ MAC  --- 12 cbr 512 [13a 1 0 800] [energy 896.524084 ei 103.402 es 0.000 et 0.009 er 0.065] ------- [0:0 1:0 32 0] [12] 1 0
s 103.475925951 _1_ MAC  --- 0 ACK 38 [0 0 0 0] [energy 896.524084 ei 103.402 es 0.000 et 0.009 er 0.065] 
N -t 103.475926 -n 0 -e 896.523770
r 103.475940951 _1_ AGT  --- 12 cbr 512 [13a 1 0 800] [energy 896.523770 ei 103.402 es 0.000 et 0.009 er 0.065] ------- [0:0 1:0 32 0] [12] 1 0
r 103.476229951 _0_ MAC  --- 0 ACK 38 [0 0 0 0] [energy 896.523770 ei 103.402 es 0.000 et 0.065 er 0.009] 
s 117.344820412 _0_ AGT  --- 13 cbr 512 [0 0 0 0] [energy 896.523770 ei 103.402 es 0.000 et 0.065 er 0.009] ------- [0:0 1:0 32 0] [13] 0 0
r 117.344820412 _0_ RTR  --- 13 cbr 512 [0 0 0 0] [energy 896.523770 ei 103.402 es 0.000 et 0.065 er 0.009] ------- [0:0 1:0 32 0] [13] 0 0
s 117.344820412 _0_ RTR  --- 13 cbr 512 [0 0 0 0] [energy 896.523770 ei 103.402 es 0.000 et 0.065 er 0.009] ------- [0:0 1:0 32 0] [13] 0 0
s 117.344955412 _0_ MAC  --- 0 RTS 44 [144e 1 0 0] [energy 896.523770 ei 103.402 es 0.000 et 0.065 er 0.009] 
N -t 117.344955 -n 1 -e 882.654693
r 117.345307412 _1_ MAC  --- 0 RTS 44 [144e 1 0 0] [energy 882.654693 ei 117.271 es 0.000 et 0.009 er 0.066] 
s 117.345317412 _1_ MAC  --- 0 CTS 38 [1314 0 0 0] [energy 882.654693 ei 117.271 es 0.000 et 0.009 er 0.066] 
N -t 117.345317 -n 0 -e 882.654379
r 117.345621412 _0_ MAC  --- 0 CTS 38 [1314 0 0 0] [energy 882.654379 ei 117.271 es 0.000 et 0.066 er 0.009] 
s 117.345631412 _0_ MAC  --- 13 cbr 570 [13a 1 0 800] [energy 882.654379 ei 117.271 es 0.000 et 0.066 er 0.009] ------- [0:0 1:0 32 0] [13] 0 0
N -t 117.345631 -n 1 -e 882.649809
r 117.350191412 _1_ MAC  --- 13 cbr 512 [13a 1 0 800] [energy 882.649809 ei 117.271 es 0.000 et 0.009 er 0.070] ------- [0:0 1:0 32 0] [13] 1 0
s 117.350201412 _1_ MAC  --- 0 ACK 38 [0 0 0 0] [energy 882.649809 ei 117.271 es 0.000 et 0.009 er 0.070] 
N -t 117.350201 -n 0 -e 882.649495
r 117.350216412 _1_ AGT  --- 13 cbr 512 [13a 1 0 800] [energy 882.649495 ei 117.271 es 0.000 et 0.010 er 0.070] ------- [0:0 1:0 32 0] [13] 1 0
r 117.350505412 _0_ MAC  --- 0 ACK 38 [0 0 0 0] [energy 882.649495 ei 117.271 es 0.000 et 0.070 er 0.010] 
s 123.465133570 _0_ AGT  --- 14 cbr 512 [0 0 0 0] [energy 882.649495 ei 117.271 es 0.000 et 0.070 er 0.010] ------- [0:0 1:0 32 0] [14] 0 0
r 123.465133570 _0_ RTR  --- 14 cbr 512 [0 0 0 0] [energy 882.649495 ei 117.271 es 0.000 et 0.070 er 0.010] ------- [0:0 1:0 32 0] [14] 0 0
s 123.465133570 _0_ RTR  --- 14 cbr 512 [0 0 0 0] [energy 882.649495 ei 117.271 es 0.000 et 0.070 er 0.010] ------- [0:0 1:0 32 0] [14] 0 0
s 123.465708570 _0_ MAC  --- 0 RTS 44 [144e 1 0 0] [energy 882.649495 ei 117.271 es 0.000 et 0.070 er 0.010] 
N -t 123.465709 -n 1 -e 876.533939
r 123.466060570 _1_ MAC  --- 0 RTS 44 [144e 1 0 0] [energy 876.533939 ei 123.386 es 0.000 et 0.010 er 0.070] 
s 123.466070570 _1_ MAC  --- 0 CTS 38 [1314 0 0 0] [energy 876.533939 ei 123.386 es 0.000 et 0.010 er 0.070] 
N -t 123.466071 -n 0 -e 876.533625
r 123.466374570 _0_ MAC  --- 0 CTS 38 [1314 0 0 0] [energy 876.533625 ei 123.386 es 0.000 et 0.070 er 0.010] 
s 123.466384570 _0_ MAC  --- 14 cbr 570 [13a 1 0 800] [energy 876.533625 ei 123.386 es 0.000 et 0.070 er 0.010] ------- [0:0 1:0 32 0] [14] 0 0
N -t 123.466385 -n 1 -e 876.529055
r 123.470944570 _1_ MAC  --- 14 cbr 512 [13a 1 0 800] [energy 876.529055 ei 123.386 es 0.000 et 0.010 er 0.075] ------- [0:0 1:0 32 0] [14] 1 0
s 123.470954570 _1_ MAC  --- 0 ACK 38 [0 0 0 0] [energy 876.529055 ei 123.386 es 0.000 et 0.010 er 0.075] 
N -t 123.470955 -n 0 -e 876.528741
r 123.470969570 _1_ AGT  --- 14 cbr 512 [13a 1 0 800] [energy 876.528741 ei 123.386 es 0.000 et 0.010 er 0.075] ------- [0:0 1:0 32 0] [14] 1 0
r 123.471258570 _0_ MAC  --- 0 ACK 38 [0 0 0 0] [energy 876.528741 ei 123.386 es 0.000 et 0.075 er 0.010] 
s 134.415407448 _0_ AGT  --- 15 cbr 512 [0 0 0 0] [energy 876.528741 ei 123.386 es 0.000 et 0.075 er 0.010] ------- [0:0 1:0 32 0] [15] 0 0
r 134.415407448 _0_ RTR  --- 15 cbr 512 [0 0 0 0] [energy 876.528741 ei 123.386 es 0.000 et 0.075 er 0.010] ------- [0:0 1:0 32 0] [15] 0 0
s 134.415407448 _0_ RTR  --- 15 cbr 512 [0 0 0 0] [energy 876.528741 ei 123.386 es 0.000 et 0.075 er 0.010] ------- [0:0 1:0 32 0] [15] 0 0
s 134.415762448 _0_ MAC  --- 0 RTS 44 [144e 1 0 0] [energy 876.528741 ei 123.386 es 0.000 et 0.075 er 0.010] 
N -t 134.415762 -n 1 -e 865.583886
r 134.416114448 _1_ MAC  --- 0 RTS 44 [144e 1 0 0] [energy 865.583886 ei 134.331 es 0.000 et 0.010 er 0.075] 
s 134.416124448 _1_ MAC  --- 0 CTS 38 [1314 0 0 0] [energy 865.583886 ei 134.331 es 0.000 et 0.010 er 0.075] 
N -t 134.416124 -n 0 -e 865.583572
r 134.416428448 _0_ MAC  --- 0 CTS 38 [1314 0 0 0] [energy 865.583572 ei 134.331 es 0.000 et 0.075 er 0.010] 
s 134.416438448 _0_ MAC  --- 15 cbr 570 [13a 1 0 800] [energy 865.583572 ei 134.331 es 0.000 et 0.075 er 0.010] ------- [0:0 1:0 32 0] [15] 0 0
N -t 134.416438 -n 1 -e 865.579002
r 134.420998448 _1_ MAC  --- 15 cbr 512 [13a 1 0 800] [energy 865.579002 ei 134.331 es 0.000 et 0.010 er 0.080] ------- [0:0 1:0 32 0] [15] 1 0
s 134.421008448 _1_ MAC  --- 0 ACK 38 [0 0 0 0] [energy 865.579002 ei 134.331 es 0.000 et 0.010 er 0.080] 
N -t 134.421008 -n 0 -e 865.578688
r 134.421023448 _1_ AGT  --- 15 cbr 512 [13a 1 0 800] [energy 865.578688 ei 134.331 es 0.000 et 0.011 er 0.080] ------- [0:0 1:0 32 0] [15] 1 0
r 134.421312448 _0_ MAC  --- 0 ACK 38 [0 0 0 0] [energy 865.578688 ei 134.331 es 0.000 et 0.080 er 0.011] 
s 146.101646378 _0_ AGT  --- 16 cbr 512 [0 0 0 0] [energy 865.578688 ei 134.331 es 0.000 et 0.080 er 0.011] ------- [0:0 1:0 32 0] [16] 0 0
r 146.101646378 _0_ RTR  --- 16 cbr 512 [0 0 0 0] [energy 865.578688 ei 134.331 es 0.000 et 0.080 er 0.011] ------- [0:0 1:0 32 0] [16] 0 0
s 146.101646378 _0_ RTR  --- 16 cbr 512 [0 0 0 0] [energy 865.578688 ei 134.331 es 0.000 et 0.080 er 0.011] ------- [0:0 1:0 32 0] [16] 0 0
s 146.101941378 _0_ MAC  --- 0 RTS 44 [144e 1 0 0] [energy 865.578688 ei 134.331 es 0.000 et 0.080 er 0.011] 
N -t 146.101941 -n 1 -e 853.897707
r 146.102293378 _1_ MAC  --- 0 RTS 44 [144e 1 0 0] [energy 853.897707 ei 146.011 es 0.000 et 0.011 er 0.080] 
s 146.102303378 _1_ MAC  --- 0 CTS 38 [1314 0 0 0] [energy 853.897707 ei 146.011 es 0.000 et 0.011 er 0.080] 
N -t 146.102303 -n 0 -e 853.897393
r 146.102607378 _0_ MAC  --- 0 CTS 38 [1314 0 0 0] [energy 853.897393 ei 146.011 es 0.000 et 0.080 er 0.011] 
s 146.102617378 _0_ MAC  --- 16 cbr 570 [13a 1 0 800] [energy 853.897393 ei 146.011 es 0.000 et 0.080 er 0.011] ------- [0:0 1:0 32 0] [16] 0 0
N -t 146.102617 -n 1 -e 853.892823
r 146.107177378 _1_ MAC  --- 16 cbr 512 [13a 1 0 800] [energy 853.892823 ei 146.011 es 0.000 et 0.011 er 0.085] ------- [0:0 1:0 32 0] [16] 1 0
s 146.107187378 _1_ MAC  --- 0 ACK 38 [0 0 0 0] [energy 853.892823 ei 146.011 es 0.000 et 0.011 er 0.085] 
N -t 146.107187 -n 0 -e 853.892509
r 146.107202378 _1_ AGT  --- 16 cbr 512 [13a 1 0 800] [energy 853.892509 ei 146.011 es 0.000 et 0.011 er 0.085] ------- [0:0 1:0 32 0] [16] 1 0
r 146.107491378 _0_ MAC  --- 0 ACK 38 [0 0 0 0] [energy 853.892509 ei 146.011 es 0.000 et 0.085 er 0.011] 
s 156.549866048 _0_ AGT  --- 17 cbr 512 [0 0 0 0] [energy 853.892509 ei 146.011 es 0.000 et 0.085 er 0.011] ------- [0:0 1:0 32 0] [17] 0 0
r 156.549866048 _0_ RTR  --- 17 cbr 512 [0 0 0 0] [energy 853.892509 ei 146.011 es 0.000 et 0.085 er 0.011] ------- [0:0 1:0 32 0] [17] 0 0
s 156.549866048 _0_ RTR  --- 17 cbr 512 [0 0 0 0] [energy 853.892509 ei 146.011 es 0.000 et 0.085 er 0.011] ------- [0:0 1:0 32 0] [17] 0 0
s 156.550161048 _0_ MAC  --- 0 RTS 44 [144e 1 0 0] [energy 853.892509 ei 146.011 es 0.000 et 0.085 er 0.011] 
N -t 156.550161 -n 1 -e 843.449487
r 156.550513048 _1_ MAC  --- 0 RTS 44 [144e 1 0 0] [energy 843.449487 ei 156.454 es 0.000 et 0.011 er 0.085] 
s 156.550523048 _1_ MAC  --- 0 CTS 38 [1314 0 0 0] [energy 843.449487 ei 156.454 es 0.000 et 0.011 er 0.085] 
N -t 156.550523 -n 0 -e 843.449173
r 156.550827048 _0_ MAC  --- 0 CTS 38 [1314 0 0 0] [energy 843.449173 ei 156.454 es 0.000 et 0.085 er 0.012] 
s 156.550837048 _0_ MAC  --- 17 cbr 570 [13a 1 0 800] [energy 843.449173 ei 156.454 es 0.000 et 0.085 er 0.012] ------- [0:0 1:0 32 0] [17] 0 0
N -t 156.550837 -n 1 -e 843.444603