V -t * -v 1.0a5 -a 0
W -t * -x 500 -y 500
A -t * -n 1 -p 0 -o 0x7fffffff -c 30 -a 1
A -t * -h 1 -m 1073741823 -s 0
+ -t 1.000000000 -s 0 -d -1 -p cbr -e 512 -c 2 -a 0 -i 0 -k AGT 
- -t 1.000000000 -s 0 -d -1 -p cbr -e 512 -c 2 -a 0 -i 0 -k AGT
h -t 1.000000000 -s 0 -d -1 -p cbr -e 512 -c 2 -a 0 -i 0 -k AGT
+ -t 1.000000000 -s 0 -d -1 -p cbr -e 512 -c 2 -a 0 -i 0 -k RTR 
- -t 1.000000000 -s 0 -d -1 -p cbr -e 512 -c 2 -a 0 -i 0 -k RTR
h -t 1.000000000 -s 0 -d -1 -p cbr -e 512 -c 2 -a 0 -i 0 -k RTR
+ -t 1.742400000 -s 0 -d -1 -p smac -e 9 -c 2 -a 0 -i 0 -k MAC 
- -t 1.742400000 -s 0 -d -1 -p smac -e 9 -c 2 -a 0 -i 0 -k MAC
h -t 1.742400000 -s 0 -d -1 -p smac -e 9 -c 2 -a 0 -i 0 -k MAC
+ -t 1.899600000 -s 1 -d -1 -p smac -e 9 -c 2 -a 0 -i 0 -k MAC 
- -t 1.899600000 -s 1 -d -1 -p smac -e 9 -c 2 -a 0 -i 0 -k MAC
h -t 1.899600000 -s 1 -d -1 -p smac -e 9 -c 2 -a 0 -i 0 -k MAC
+ -t 2.044800000 -s 0 -d -1 -p smac -e 9 -c 2 -a 0 -i 0 -k MAC 
- -t 2.044800000 -s 0 -d -1 -p smac -e 9 -c 2 -a 0 -i 0 -k MAC
h -t 2.044800000 -s 0 -d -1 -p smac -e 9 -c 2 -a 0 -i 0 -k MAC
+ -t 3.326600000 -s 1 -d -1 -p smac -e 9 -c 2 -a 0 -i 0 -k MAC 
- -t 3.326600000 -s 1 -d -1 -p smac -e 9 -c 2 -a 0 -i 0 -k MAC
h -t 3.326600000 -s 1 -d -1 -p smac -e 9 -c 2 -a 0 -i 0 -k MAC
+ -t 3.478800000 -s 0 -d -1 -p smac -e 9 -c 2 -a 0 -i 0 -k MAC 
- -t 3.478800000 -s 0 -d -1 -p smac -e 9 -c 2 -a 0 -i 0 -k MAC
h -t 3.478800000 -s 0 -d -1 -p smac -e 9 -c 2 -a 0 -i 0 -k MAC
+ -t 4.778600000 -s 1 -d -1 -p smac -e 9 -c 2 -a 0 -i 0 -k MAC 
- -t 4.778600000 -s 1 -d -1 -p smac -e 9 -c 2 -a 0 -i 0 -k MAC
h -t 4.778600000 -s 1 -d -1 -p smac -e 9 -c 2 -a 0 -i 0 -k MAC
+ -t 4.924800000 -s 0 -d -1 -p smac -e 9 -c 2 -a 0 -i 0 -k MAC 
- -t 4.924800000 -s 0 -d -1 -p smac -e 9 -c 2 -a 0 -i 0 -k MAC
h -t 4.924800000 -s 0 -d -1 -p smac -e 9 -c 2 -a 0 -i 0 -k MAC
+ -t 6.003395772 -s 0 -d -1 -p cbr -e 512 -c 2 -a 0 -i 1 -k AGT 
- -t 6.003395772 -s 0 -d -1 -p cbr -e 512 -c 2 -a 0 -i 1 -k AGT
h -t 6.003395772 -s 0 -d -1 -p cbr -e 512 -c 2 -a 0 -i 1 -k AGT
+ -t 6.003395772 -s 0 -d -1 -p cbr -e 512 -c 2 -a 0 -i 1 -k RTR 
- -t 6.003395772 -s 0 -d -1 -p cbr -e 512 -c 2 -a 0 -i 1 -k RTR
h -t 6.003395772 -s 0 -d -1 -p cbr -e 512 -c 2 -a 0 -i 1 -k RTR
d -t 6.003395772 -s 0 -d -1 -p cbr -e 512 -c 2 -a 0 -i 0 -k IFQ
+ -t 6.223600000 -s 1 -d -1 -p smac -e 9 -c 2 -a 0 -i 0 -k MAC 
- -t 6.223600000 -s 1 -d -1 -p smac -e 9 -c 2 -a 0 -i 0 -k MAC
h -t 6.223600000 -s 1 -d -1 -p smac -e 9 -c 2 -a 0 -i 0 -k MAC
+ -t 6.366800000 -s 0 -d -1 -p smac -e 9 -c 2 -a 0 -i 0 -k MAC 
- -t 6.366800000 -s 0 -d -1 -p smac -e 9 -c 2 -a 0 -i 0 -k MAC
h -t 6.366800000 -s 0 -d -1 -p smac -e 9 -c 2 -a 0 -i 0 -k MAC
+ -t 7.654600000 -s 1 -d -1 -p smac -e 9 -c 2 -a 0 -i 0 -k MAC 
- -t 7.654600000 -s 1 -d -1 -p smac -e 9 -c 2 -a 0 -i 0 -k MAC
h -t 7.654600000 -s 1 -d -1 -p smac -e 9 -c 2 -a 0 -i 0 -k MAC
+ -t 7.823800000 -s 0 -d -1 -p smac -e 9 -c 2 -a 0 -i 0 -k MAC 
- -t 7.823800000 -s 0 -d -1 -p smac -e 9 -c 2 -a 0 -i 0 -k MAC
h -t 7.823800000 -s 0 -d -1 -p smac -e 9 -c 2 -a 0 -i 0 -k MAC
+ -t 9.102600000 -s 1 -d -1 -p smac -e 9 -c 2 -a 0 -i 0 -k MAC 
- -t 9.102600000 -s 1 -d -1 -p smac -e 9 -c 2 -a 0 -i 0 -k MAC
h -t 9.102600000 -s 1 -d -1 -p smac -e 9 -c 2 -a 0 -i 0 -k MAC
+ -t 9.256800000 -s 0 -d -1 -p smac -e 9 -c 2 -a 0 -i 0 -k MAC 
- -t 9.256800000 -s 0 -d -1 -p smac -e 9 -c 2 -a 0 -i 0 -k MAC
h -t 9.256800000 -s 0 -d -1 -p smac -e 9 -c 2 -a 0 -i 0 -k MAC
+ -t 10.548600000 -s 1 -d -1 -p smac -e 9 -c 2 -a 0 -i 0 -k MAC 
- -t 10.548600000 -s 1 -d -1 -p smac -e 9 -c 2 -a 0 -i 0 -k MAC
h -t 10.548600000 -s 1 -d -1 -p smac -e 9 -c 2 -a 0 -i 0 -k MAC
+ -t 10.688800000 -s 0 -d -1 -p smac -e 9 -c 2 -a 0 -i 0 -k MAC 
- -t 10.688800000 -s 0 -d -1 -p smac -e 9 -c 2 -a 0 -i 0 -k MAC
h -t 10.688800000 -s 0 -d -1 -p smac -e 9 -c 2 -a 0 -i 0 -k MAC
+ -t 12.002600000 -s 1 -d -1 -p smac -e 9 -c 2 -a 0 -i 0 -k MAC 
- -t 12.002600000 -s 1 -d -1 -p smac -e 9 -c 2 -a 0 -i 0 -k MAC
h -t 12.002600000 -s 1 -d -1 -p smac -e 9 -c 2 -a 0 -i 0 -k MAC
+ -t 12.139800000 -s 0 -d -1 -p smac -e 9 -c 2 -a 0 -i 0 -k MAC 
- -t 12.139800000 -s 0 -d -1 -p smac -e 9 -c 2 -a 0 -i 0 -k MAC
h -t 12.139800000 -s 0 -d -1 -p smac -e 9 -c 2 -a 0 -i 0 -k MAC
+ -t 13.436600000 -s 1 -d -1 -p smac -e 9 -c 2 -a 0 -i 0 -k MAC 
- -t 13.436600000 -s 1 -d -1 -p smac -e 9 -c 2 -a 0 -i 0 -k MAC
h -t 13.436600000 -s 1 -d -1 -p smac -e 9 -c 2 -a 0 -i 0 -k MAC
+ -t 13.574800000 -s 0 -d -1 -p smac -e 9 -c 2 -a 0 -i 0 -k MAC 
- -t 13.574800000 -s 0 -d -1 -p smac -e 9 -c 2 -a 0 -i 0 -k MAC
h -t 13.574800000 -s 0 -d -1 -p smac -e 9 -c 2 -a 0 -i 0 -k MAC
+ -t 14.873600000 -s 1 -d -1 -p smac -e 9 -c 2 -a 0 -i 0 -k MAC 
- -t 14.873600000 -s 1 -d -1 -p smac -e 9 -c 2 -a 0 -i 0 -k MAC
h -t 14.873600000 -s 1 -d -1 -p smac -e 9 -c 2 -a 0 -i 0 -k MAC
+ -t 15.007800000 -s 0 -d -1 -p smac -e 9 -c 2 -a 0 -i 0 -k MAC 
- -t 15.007800000 -s 0 -d -1 -p smac -e 9 -c 2 -a 0 -i 0 -k MAC
h -t 15.007800000 -s 0 -d -1 -p smac -e 9 -c 2 -a 0 -i 0 -k MAC
+ -t 16.316600000 -s 1 -d -1 -p smac -e 9 -c 2 -a 0 -i 0 -k MAC 
- -t 16.316600000 -s 1 -d -1 -p smac -e 9 -c 2 -a 0 -i 0 -k MAC
h -t 16.316600000 -s 1 -d -1 -p smac -e 9 -c 2 -a 0 -i 0 -k MAC
+ -t 16.470800000 -s 0 -d -1 -p smac -e 9 -c 2 -a 0 -i 0 -k MAC 
- -t 16.470800000 -s 0 -d -1 -p smac -e 9 -c 2 -a 0 -i 0 -k MAC
h -t 16.470800000 -s 0 -d -1 -p smac -e 9 -c 2 -a 0 -i 0 -k MAC
+ -t 17.392047205 -s 0 -d -1 -p cbr -e 512 -c 2 -a 0 -i 2 -k AGT 
- -t 17.392047205 -s 0 -d -1 -p cbr -e 512 -c 2 -a 0 -i 2 -k AGT
h -t 17.392047205 -s 0 -d -1 -p cbr -e 512 -c 2 -a 0 -i 2 -k AGT
+ -t 17.392047205 -s 0 -d -1 -p cbr -e 512 -c 2 -a 0 -i 2 -k RTR 
- -t 17.392047205 -s 0 -d -1 -p cbr -e 512 -c 2 -a 0 -i 2 -k RTR
h -t 17.392047205 -s 0 -d -1 -p cbr -e 512 -c 2 -a 0 -i 2 -k RTR
d -t 17.392047205 -s 0 -d -1 -p cbr -e 512 -c 2 -a 0 -i 1 -k IFQ
+ -t 17.775600000 -s 1 -d -1 -p smac -e 9 -c 2 -a 0 -i 0 -k MAC 
- -t 17.775600000 -s 1 -d -1 -p smac -e 9 -c 2 -a 0 -i 0 -k MAC
h -t 17.775600000 -s 1 -d -1 -p smac -e 9 -c 2 -a 0 -i 0 -k MAC
+ -t 17.910800000 -s 0 -d -1 -p smac -e 9 -c 2 -a 0 -i 0 -k MAC 
- -t 17.910800000 -s 0 -d -1 -p smac -e 9 -c 2 -a 0 -i 0 -k MAC
h -t 17.910800000 -s 0 -d -1 -p smac -e 9 -c 2 -a 0 -i 0 -k MAC
+ -t 19.215600000 -s 1 -d -1 -p smac -e 9 -c 2 -a 0 -i 0 -k MAC 
- -t 19.215600000 -s 1 -d -1 -p smac -e 9 -c 2 -a 0 -i 0 -k MAC
h -t 19.215600000 -s 1 -d -1 -p smac -e 9 -c 2 -a 0 -i 0 -k MAC
+ -t 19.350800000 -s 0 -d -1 -p smac -e 9 -c 2 -a 0 -i 0 -k MAC 
- -t 19.350800000 -s 0 -d -1 -p smac -e 9 -c 2 -a 0 -i 0 -k MAC
h -t 19.350800000 -s 0 -d -1 -p smac -e 9 -c 2 -a 0 -i 0 -k MAC
+ -t 20.632600000 -s 1 -d -1 -p smac -e 9 -c 2 -a 0 -i 0 -k MAC 
- -t 20.632600000 -s 1 -d -1 -p smac -e 9 -c 2 -a 0 -i 0 -k MAC
h -t 20.632600000 -s 1 -d -1 -p smac -e 9 -c 2 -a 0 -i 0 -k MAC
+ -t 20.789800000 -s 0 -d -1 -p smac -e 9 -c 2 -a 0 -i 0 -k MAC 
- -t 20.789800000 -s 0 -d -1 -p smac -e 9 -c 2 -a 0 -i 0 -k MAC
h -t 20.789800000 -s 0 -d -1 -p smac -e 9 -c 2 -a 0 -i 0 -k MAC
+ -t 22.090600000 -s 1 -d -1 -p smac -e 9 -c 2 -a 0 -i 0 -k MAC 
- -t 22.090600000 -s 1 -d -1 -p smac -e 9 -c 2 -a 0 -i 0 -k MAC
h -t 22.090600000 -s 1 -d -1 -p smac -e 9 -c 2 -a 0 -i 0 -k MAC
+ -t 22.223800000 -s 0 -d -1 -p smac -e 9 -c 2 -a 0 -i 0 -k MAC 
- -t 22.223800000 -s 0 -d -1 -p smac -e 9 -c 2 -a 0 -i 0 -k MAC
h -t 22.223800000 -s 0 -d -1 -p smac -e 9 -c 2 -a 0 -i 0 -k MAC
+ -t 23.518600000 -s 1 -d -1 -p smac -e 9 -c 2 -a 0 -i 0 -k MAC 
- -t 23.518600000 -s 1 -d -1 -p smac -e 9 -c 2 -a 0 -i 0 -k MAC
h -t 23.518600000 -s 1 -d -1 -p smac -e 9 -c 2 -a 0 -i 0 -k MAC
+ -t 23.672800000 -s 0 -d -1 -p smac -e 9 -c 2 -a 0 -i 0 -k MAC 
- -t 23.672800000 -s 0 -d -1 -p smac -e 9 -c 2 -a 0 -i 0 -k MAC
h -t 23.672800000 -s 0 -d -1 -p smac -e 9 -c 2 -a 0 -i 0 -k MAC
+ -t 24.966600000 -s 1 -d -1 -p smac -e 9 -c 2 -a 0 -i 0 -k MAC 
- -t 24.966600000 -s 1 -d -1 -p smac -e 9 -c 2 -a 0 -i 0 -k MAC
h -t 24.966600000 -s 1 -d -1 -p smac -e 9 -c 2 -a 0 -i 0 -k MAC
+ -t 25.105800000 -s 0 -d -1 -p smac -e 9 -c 2 -a 0 -i 0 -k MAC 
- -t 25.105800000 -s 0 -d -1 -p smac -e 9 -c 2 -a 0 -i 0 -k MAC
h -t 25.105800000 -s 0 -d -1 -p smac -e 9 -c 2 -a 0 -i 0 -k MAC
+ -t 26.424600000 -s 1 -d -1 -p smac -e 9 -c 2 -a 0 -i 0 -k MAC 
- -t 26.424600000 -s 1 -d -1 -p smac -e 9 -c 2 -a 0 -i 0 -k MAC
h -t 26.424600000 -s 1 -d -1 -p smac -e 9 -c 2 -a 0 -i 0 -k MAC
+ -t 26.553800000 -s 0 -d -1 -p smac -e 9 -c 2 -a 0 -i 0 -k MAC 
- -t 26.553800000 -s 0 -d -1 -p smac -e 9 -c 2 -a 0 -i 0 -k MAC
h -t 26.553800000 -s 0 -d -1 -p smac -e 9 -c 2 -a 0 -i 0 -k MAC
+ -t 27.850600000 -s 1 -d -1 -p smac -e 9 -c 2 -a 0 -i 0 -k MAC 
- -t 27.850600000 -s 1 -d -1 -p smac -e 9 -c 2 -a 0 -i 0 -k MAC
h -t 27.850600000 -s 1 -d -1 -p smac -e 9 -c 2 -a 0 -i 0 -k MAC
+ -t 28.013800000 -s 0 -d -1 -p smac -e 9 -c 2 -a 0 -i 0 -k MAC 
- -t 28.013800000 -s 0 -d -1 -p smac -e 9 -c 2 -a 0 -i 0 -k MAC
h -t 28.013800000 -s 0 -d -1 -p smac -e 9 -c 2 -a 0 -i 0 -k MAC
+ -t 29.285600000 -s 1 -d -1 -p smac -e 9 -c 2 -a 0 -i 0 -k MAC 
- -t 29.285600000 -s 1 -d -1 -p smac -e 9 -c 2 -a 0 -i 0 -k MAC
h -t 29.285600000 -s 1 -d -1 -p smac -e 9 -c 2 -a 0 -i 0 -k MAC
+ -t 29.315115529 -s 0 -d -1 -p cbr -e 512 -c 2 -a 0 -i 3 -k AGT 
- -t 29.315115529 -s 0 -d -1 -p cbr -e 512 -c 2 -a 0 -i 3 -k AGT
h -t 29.315115529 -s 0 -d -1 -p cbr -e 512 -c 2 -a 0 -i 3 -k AGT
+ -t 29.315115529 -s 0 -d -1 -p cbr -e 512 -c 2 -a 0 -i 3 -k RTR 
- -t 29.315115529 -s 0 -d -1 -p cbr -e 512 -c 2 -a 0 -i 3 -k RTR
h -t 29.315115529 -s 0 -d -1 -p cbr -e 512 -c 2 -a 0 -i 3 -k RTR
d -t 29.315115529 -s 0 -d -1 -p cbr -e 512 -c 2 -a 0 -i 2 -k IFQ
d -t 29.315115529 -s 0 -d -1 -p cbr -e 512 -c 2 -a 0 -i 3 -k IFQ
+ -t 29.443800000 -s 0 -d -1 -p smac -e 9 -c 2 -a 0 -i 0 -k MAC 
- -t 29.443800000 -s 0 -d -1 -p smac -e 9 -c 2 -a 0 -i 0 -k MAC
h -t 29.443800000 -s 0 -d -1 -p smac -e 9 -c 2 -a 0 -i 0 -k MAC
+ -t 30.749600000 -s 1 -d -1 -p smac -e 9 -c 2 -a 0 -i 0 -k MAC 
- -t 30.749600000 -s 1 -d -1 -p smac -e 9 -c 2 -a 0 -i 0 -k MAC
h -t 30.749600000 -s 1 -d -1 -p smac -e 9 -c 2 -a 0 -i 0 -k MAC
+ -t 30.882800000 -s 0 -d -1 -p smac -e 9 -c 2 -a 0 -i 0 -k MAC 
- -t 30.882800000 -s 0 -d -1 -p smac -e 9 -c 2 -a 0 -i 0 -k MAC
h -t 30.882800000 -s 0 -d -1 -p smac -e 9 -c 2 -a 0 -i 0 -k MAC
+ -t 32.175600000 -s 1 -d -1 -p smac -e 9 -c 2 -a 0 -i 0 -k MAC 
- -t 32.175600000 -s 1 -d -1 -p smac -e 9 -c 2 -a 0 -i 0 -k MAC
h -t 32.175600000 -s 1 -d -1 -p smac -e 9 -c 2 -a 0 -i 0 -k MAC
+ -t 32.324800000 -s 0 -d -1 -p smac -e 9 -c 2 -a 0 -i 0 -k MAC 
- -t 32.324800000 -s 0 -d -1 -p smac -e 9 -c 2 -a 0 -i 0 -k MAC
h -t 32.324800000 -s 0 -d -1 -p smac -e 9 -c 2 -a 0 -i 0 -k MAC
+ -t 33.632600000 -s 1 -d -1 -p smac -e 9 -c 2 -a 0 -i 0 -k MAC 
- -t 33.632600000 -s 1 -d -1 -p smac -e 9 -c 2 -a 0 -i 0 -k MAC
h -t 33.632600000 -s 1 -d -1 -p smac -e 9 -c 2 -a 0 -i 0 -k MAC
+ -t 33.752800000 -s 0 -d -1 -p smac -e 9 -c 2 -a 0 -i 0 -k MAC 
- -t 33.752800000 -s 0 -d -1 -p smac -e 9 -c 2 -a 0 -i 0 -k MAC
h -t 33.752800000 -s 0 -d -1 -p smac -e 9 -c 2 -a 0 -i 0 -k MAC
+ -t 34.423198911 -s 0 -d -1 -p cbr -e 512 -c 2 -a 0 -i 4 -k AGT 
- -t 34.423198911 -s 0 -d -1 -p cbr -e 512 -c 2 -a 0 -i 4 -k AGT
h -t 34.423198911 -s 0 -d -1 -p cbr -e 512 -c 2 -a 0 -i 4 -k AGT
+ -t 34.423198911 -s 0 -d -1 -p cbr -e 512 -c 2 -a 0 -i 4 -k RTR 
- -t 34.423198911 -s 0 -d -1 -p cbr -e 512 -c 2 -a 0 -i 4 -k RTR
h -t 34.423198911 -s 0 -d -1 -p cbr -e 512 -c 2 -a 0 -i 4 -k RTR
+ -t 35.066600000 -s 1 -d -1 -p smac -e 9 -c 2 -a 0 -i 0 -k MAC 
- -t 35.066600000 -s 1 -d -1 -p smac -e 9 -c 2 -a 0 -i 0 -k MAC
h -t 35.066600000 -s 1 -d -1 -p smac -e 9 -c 2 -a 0 -i 0 -k MAC
+ -t 35.202800000 -s 0 -d -1 -p smac -e 9 -c 2 -a 0 -i 0 -k MAC 
- -t 35.202800000 -s 0 -d -1 -p smac -e 9 -c 2 -a 0 -i 0 -k MAC
h -t 35.202800000 -s 0 -d -1 -p smac -e 9 -c 2 -a 0 -i 0 -k MAC
+ -t 36.503600000 -s 1 -d -1 -p smac -e 9 -c 2 -a 0 -i 0 -k MAC 
- -t 36.503600000 -s 1 -d -1 -p smac -e 9 -c 2 -a 0 -i 0 -k MAC
h -t 36.503600000 -s 1 -d -1 -p smac -e 9 -c 2 -a 0 -i 0 -k MAC
+ -t 36.640800000 -s 0 -d -1 -p smac -e 9 -c 2 -a 0 -i 0 -k MAC 
- -t 36.640800000 -s 0 -d -1 -p smac -e 9 -c 2 -a 0 -i 0 -k MAC
h -t 36.640800000 -s 0 -d -1 -p smac -e 9 -c 2 -a 0 -i 0 -k MAC
+ -t 37.949600000 -s 1 -d -1 -p smac -e 9 -c 2 -a 0 -i 0 -k MAC 
- -t 37.949600000 -s 1 -d -1 -p smac -e 9 -c 2 -a 0 -i 0 -k MAC
h -t 37.949600000 -s 1 -d -1 -p smac -e 9 -c 2 -a 0 -i 0 -k MAC
+ -t 38.078800000 -s 0 -d -1 -p smac -e 9 -c 2 -a 0 -i 0 -k MAC 
- -t 38.078800000 -s 0 -d -1 -p smac -e 9 -c 2 -a 0 -i 0 -k MAC
h -t 38.078800000 -s 0 -d -1 -p smac -e 9 -c 2 -a 0 -i 0 -k MAC
+ -t 39.388600000 -s 1 -d -1 -p smac -e 9 -c 2 -a 0 -i 0 -k MAC 
- -t 39.388600000 -s 1 -d -1 -p smac -e 9 -c 2 -a 0 -i 0 -k MAC
h -t 39.388600000 -s 1 -d -1 -p smac -e 9 -c 2 -a 0 -i 0 -k MAC
+ -t 39.535800000 -s 0 -d -1 -p smac -e 9 -c 2 -a 0 -i 0 -k MAC 
- -t 39.535800000 -s 0 -d -1 -p smac -e 9 -c 2 -a 0 -i 0 -k MAC
h -t 39.535800000 -s 0 -d -1 -p smac -e 9 -c 2 -a 0 -i 0 -k MAC
+ -t 40.832600000 -s 1 -d -1 -p smac -e 9 -c 2 -a 0 -i 0 -k MAC 
- -t 40.832600000 -s 1 -d -1 -p smac -e 9 -c 2 -a 0 -i 0 -k MAC
h -t 40.832600000 -s 1 -d -1 -p smac -e 9 -c 2 -a 0 -i 0 -k MAC
+ -t 40.963800000 -s 0 -d -1 -p smac -e 9 -c 2 -a 0 -i 0 -k MAC 
- -t 40.963800000 -s 0 -d -1 -p smac -e 9 -c 2 -a 0 -i 0 -k MAC
h -t 40.963800000 -s 0 -d -1 -p smac -e 9 -c 2 -a 0 -i 0 -k MAC
+ -t 42.284600000 -s 1 -d -1 -p smac -e 9 -c 2 -a 0 -i 0 -k MAC 
- -t 42.284600000 -s 1 -d -1 -p smac -e 9 -c 2 -a 0 -i 0 -k MAC
h -t 42.284600000 -s 1 -d -1 -p smac -e 9 -c 2 -a 0 -i 0 -k MAC
+ -t 42.416800000 -s 0 -d -1 -p smac -e 9 -c 2 -a 0 -i 0 -k MAC 
- -t 42.416800000 -s 0 -d -1 -p smac -e 9 -c 2 -a 0 -i 0 -k MAC
h -t 42.416800000 -s 0 -d -1 -p smac -e 9 -c 2 -a 0 -i 0 -k MAC
+ -t 43.708600000 -s 1 -d -1 -p smac -e 9 -c 2 -a 0 -i 0 -k MAC 
- -t 43.708600000 -s 1 -d -1 -p smac -e 9 -c 2 -a 0 -i 0 -k MAC
h -t 43.708600000 -s 1 -d -1 -p smac -e 9 -c 2 -a 0 -i 0 -k MAC
+ -t 43.861800000 -s 0 -d -1 -p smac -e 9 -c 2 -a 0 -i 0 -k MAC 
- -t 43.861800000 -s 0 -d -1 -p smac -e 9 -c 2 -a 0 -i 0 -k MAC
h -t 43.861800000 -s 0 -d -1 -p smac -e 9 -c 2 -a 0 -i 0 -k MAC
+ -t 45.146600000 -s 1 -d -1 -p smac -e 9 -c 2 -a 0 -i 0 -k MAC 
- -t 45.146600000 -s 1 -d -1 -p smac -e 9 -c 2 -a 0 -i 0 -k MAC
h -t 45.146600000 -s 1 -d -1 -p smac -e 9 -c 2 -a 0 -i 0 -k MAC
+ -t 45.311800000 -s 0 -d -1 -p smac -e 9 -c 2 -a 0 -i 0 -k MAC 
- -t 45.311800000 -s 0 -d -1 -p smac -e 9 -c 2 -a 0 -i 0 -k MAC
h -t 45.311800000 -s 0 -d -1 -p smac -e 9 -c 2 -a 0 -i 0 -k MAC
+ -t 46.592600000 -s 1 -d -1 -p smac -e 9 -c 2 -a 0 -i 0 -k MAC 
- -t 46.592600000 -s 1 -d -1 -p smac -e 9 -c 2 -a 0 -i 0 -k MAC
h -t 46.592600000 -s 1 -d -1 -p smac -e 9 -c 2 -a 0 -i 0 -k MAC
+ -t 46.740800000 -s 0 -d -1 -p smac -e 9 -c 2 -a 0 -i 0 -k MAC 
- -t 46.740800000 -s 0 -d -1 -p smac -e 9 -c 2 -a 0 -i 0 -k MAC
h -t 46.740800000 -s 0 -d -1 -p smac -e 9 -c 2 -a 0 -i 0 -k MAC
+ -t 48.033600000 -s 1 -d -1 -p smac -e 9 -c 2 -a 0 -i 0 -k MAC 
- -t 48.033600000 -s 1 -d -1 -p smac -e 9 -c 2 -a 0 -i 0 -k MAC
h -t 48.033600000 -s 1 -d -1 -p smac -e 9 -c 2 -a 0 -i 0 -k MAC
+ -t 48.176800000 -s 0 -d -1 -p smac -e 9 -c 2 -a 0 -i 0 -k MAC 
- -t 48.176800000 -s 0 -d -1 -p smac -e 9 -c 2 -a 0 -i 0 -k MAC
h -t 48.176800000 -s 0 -d -1 -p smac -e 9 -c 2 -a 0 -i 0 -k MAC
+ -t 48.189755646 -s 0 -d -1 -p cbr -e 512 -c 2 -a 0 -i 5 -k AGT 
- -t 48.189755646 -s 0 -d -1 -p cbr -e 512 -c 2 -a 0 -i 5 -k AGT
h -t 48.189755646 -s 0 -d -1 -p cbr -e 512 -c 2 -a 0 -i 5 -k AGT
+ -t 48.189755646 -s 0 -d -1 -p cbr -e 512 -c 2 -a 0 -i 5 -k RTR 
- -t 48.189755646 -s 0 -d -1 -p cbr -e 512 -c 2 -a 0 -i 5 -k RTR
h -t 48.189755646 -s 0 -d -1 -p cbr -e 512 -c 2 -a 0 -i 5 -k RTR
d -t 48.189755646 -s 0 -d -1 -p cbr -e 512 -c 2 -a 0 -i 4 -k IFQ
+ -t 49.480600000 -s 1 -d -1 -p smac -e 9 -c 2 -a 0 -i 0 -k MAC 
- -t 49.480600000 -s 1 -d -1 -p smac -e 9 -c 2 -a 0 -i 0 -k MAC
h -t 49.480600000 -s 1 -d -1 -p smac -e 9 -c 2 -a 0 -i 0 -k MAC
+ -t 49.617800000 -s 0 -d -1 -p smac -e 9 -c 2 -a 0 -i 0 -k MAC 
- -t 49.617800000 -s 0 -d -1 -p smac -e 9 -c 2 -a 0 -i 0 -k MAC
h -t 49.617800000 -s 0 -d -1 -p smac -e 9 -c 2 -a 0 -i 0 -k MAC
+ -t 50.929600000 -s 1 -d -1 -p smac -e 9 -c 2 -a 0 -i 0 -k MAC 
- -t 50.929600000 -s 1 -d -1 -p smac -e 9 -c 2 -a 0 -i 0 -k MAC
h -t 50.929600000 -s 1 -d -1 -p smac -e 9 -c 2 -a 0 -i 0 -k MAC
+ -t 51.086800000 -s 0 -d -1 -p smac -e 9 -c 2 -a 0 -i 0 -k MAC 
- -t 51.086800000 -s 0 -d -1 -p smac -e 9 -c 2 -a 0 -i 0 -k MAC
h -t 51.086800000 -s 0 -d -1 -p smac -e 9 -c 2 -a 0 -i 0 -k MAC
+ -t 52.360600000 -s 1 -d -1 -p smac -e 9 -c 2 -a 0 -i 0 -k MAC 
- -t 52.360600000 -s 1 -d -1 -p smac -e 9 -c 2 -a 0 -i 0 -k MAC
h -t 52.360600000 -s 1 -d -1 -p smac -e 9 -c 2 -a 0 -i 0 -k MAC
+ -t 52.501800000 -s 0 -d -1 -p smac -e 9 -c 2 -a 0 -i 0 -k MAC 
- -t 52.501800000 -s 0 -d -1 -p smac -e 9 -c 2 -a 0 -i 0 -k MAC
h -t 52.501800000 -s 0 -d -1 -p smac -e 9 -c 2 -a 0 -i 0 -k MAC
+ -t 53.825600000 -s 1 -d -1 -p smac -e 9 -c 2 -a 0 -i 0 -k MAC 
- -t 53.825600000 -s 1 -d -1 -p smac -e 9 -c 2 -a 0 -i 0 -k MAC
h -t 53.825600000 -s 1 -d -1 -p smac -e 9 -c 2 -a 0 -i 0 -k MAC
+ -t 53.946800000 -s 0 -d -1 -p smac -e 9 -c 2 -a 0 -i 0 -k MAC 
- -t 53.946800000 -s 0 -d -1 -p smac -e 9 -c 2 -a 0 -i 0 -k MAC
h -t 53.946800000 -s 0 -d -1 -p smac -e 9 -c 2 -a 0 -i 0 -k MAC
+ -t 54.071757103 -s 0 -d -1 -p cbr -e 512 -c 2 -a 0 -i 6 -k AGT 
- -t 54.071757103 -s 0 -d -1 -p cbr -e 512 -c 2 -a 0 -i 6 -k AGT
h -t 54.071757103 -s 0 -d -1 -p cbr -e 512 -c 2 -a 0 -i 6 -k AGT
+ -t 54.071757103 -s 0 -d -1 -p cbr -e 512 -c 2 -a 0 -i 6 -k RTR 
- -t 54.071757103 -s 0 -d -1 -p cbr -e 512 -c 2 -a 0 -i 6 -k RTR
h -t 54.071757103 -s 0 -d -1 -p cbr -e 512 -c 2 -a 0 -i 6 -k RTR
d -t 54.071757103 -s 0 -d -1 -p cbr -e 512 -c 2 -a 0 -i 5 -k IFQ
+ -t 55.260600000 -s 1 -d -1 -p smac -e 9 -c 2 -a 0 -i 0 -k MAC 
- -t 55.260600000 -s 1 -d -1 -p smac -e 9 -c 2 -a 0 -i 0 -k MAC
h -t 55.260600000 -s 1 -d -1 -p smac -e 9 -c 2 -a 0 -i 0 -k MAC
+ -t 55.409800000 -s 0 -d -1 -p smac -e 9 -c 2 -a 0 -i 0 -k MAC 
- -t 55.409800000 -s 0 -d -1 -p smac -e 9 -c 2 -a 0 -i 0 -k MAC
h -t 55.409800000 -s 0 -d -1 -p smac -e 9 -c 2 -a 0 -i 0 -k MAC
+ -t 56.695600000 -s 1 -d -1 -p smac -e 9 -c 2 -a 0 -i 0 -k MAC 
- -t 56.695600000 -s 1 -d -1 -p smac -e 9 -c 2 -a 0 -i 0 -k MAC
h -t 56.695600000 -s 1 -d -1 -p smac -e 9 -c 2 -a 0 -i 0 -k MAC
+ -t 56.839800000 -s 0 -d -1 -p smac -e 9 -c 2 -a 0 -i 0 -k MAC 
- -t 56.839800000 -s 0 -d -1 -p smac -e 9 -c 2 -a 0 -i 0 -k MAC
h -t 56.839800000 -s 0 -d -1 -p smac -e 9 -c 2 -a 0 -i 0 -k MAC
+ -t 58.137600000 -s 1 -d -1 -p smac -e 9 -c 2 -a 0 -i 0 -k MAC 
- -t 58.137600000 -s 1 -d -1 -p smac -e 9 -c 2 -a 0 -i 0 -k MAC
h -t 58.137600000 -s 1 -d -1 -p smac -e 9 -c 2 -a 0 -i 0 -k MAC
+ -t 58.283800000 -s 0 -d -1 -p smac -e 9 -c 2 -a 0 -i 0 -k MAC 
- -t 58.283800000 -s 0 -d -1 -p smac -e 9 -c 2 -a 0 -i 0 -k MAC
h -t 58.283800000 -s 0 -d -1 -p smac -e 9 -c 2 -a 0 -i 0 -k MAC
+ -t 59.566600000 -s 1 -d -1 -p smac -e 9 -c 2 -a 0 -i 0 -k MAC 
- -t 59.566600000 -s 1 -d -1 -p smac -e 9 -c 2 -a 0 -i 0 -k MAC
h -t 59.566600000 -s 1 -d -1 -p smac -e 9 -c 2 -a 0 -i 0 -k MAC
+ -t 59.737800000 -s 0 -d -1 -p smac -e 9 -c 2 -a 0 -i 0 -k MAC 
- -t 59.737800000 -s 0 -d -1 -p smac -e 9 -c 2 -a 0 -i 0 -k MAC
h -t 59.737800000 -s 0 -d -1 -p smac -e 9 -c 2 -a 0 -i 0 -k MAC
+ -t 61.017600000 -s 1 -d -1 -p smac -e 9 -c 2 -a 0 -i 0 -k MAC 
- -t 61.017600000 -s 1 -d -1 -p smac -e 9 -c 2 -a 0 -i 0 -k MAC
h -t 61.017600000 -s 1 -d -1 -p smac -e 9 -c 2 -a 0 -i 0 -k MAC
+ -t 61.159800000 -s 0 -d -1 -p smac -e 9 -c 2 -a 0 -i 0 -k MAC 
- -t 61.159800000 -s 0 -d -1 -p smac -e 9 -c 2 -a 0 -i 0 -k MAC
h -t 61.159800000 -s 0 -d -1 -p smac -e 9 -c 2 -a 0 -i 0 -k MAC
+ -t 62.456600000 -s 1 -d -1 -p smac -e 9 -c 2 -a 0 -i 0 -k MAC 
- -t 62.456600000 -s 1 -d -1 -p smac -e 9 -c 2 -a 0 -i 0 -k MAC
h -t 62.456600000 -s 1 -d -1 -p smac -e 9 -c 2 -a 0 -i 0 -k MAC
+ -t 62.614800000 -s 0 -d -1 -p smac -e 9 -c 2 -a 0 -i 0 -k MAC 
- -t 62.614800000 -s 0 -d -1 -p smac -e 9 -c 2 -a 0 -i 0 -k MAC
h -t 62.614800000 -s 0 -d -1 -p smac -e 9 -c 2 -a 0 -i 0 -k MAC
+ -t 63.910600000 -s 1 -d -1 -p smac -e 9 -c 2 -a 0 -i 0 -k MAC 
- -t 63.910600000 -s 1 -d -1 -p smac -e 9 -c 2 -a 0 -i 0 -k MAC
h -t 63.910600000 -s 1 -d -1 -p smac -e 9 -c 2 -a 0 -i 0 -k MAC
+ -t 64.040800000 -s 0 -d -1 -p smac -e 9 -c 2 -a 0 -i 0 -k MAC 
- -t 64.040800000 -s 0 -d -1 -p smac -e 9 -c 2 -a 0 -i 0 -k MAC
h -t 64.040800000 -s 0 -d -1 -p smac -e 9 -c 2 -a 0 -i 0 -k MAC
+ -t 64.655842973 -s 0 -d -1 -p cbr -e 512 -c 2 -a 0 -i 7 -k AGT 
- -t 64.655842973 -s 0 -d -1 -p cbr -e 512 -c 2 -a 0 -i 7 -k AGT
h -t 64.655842973 -s 0 -d -1 -p cbr -e 512 -c 2 -a 0 -i 7 -k AGT
+ -t 64.655842973 -s 0 -d -1 -p cbr -e 512 -c 2 -a 0 -i 7 -k RTR 
- -t 64.655842973 -s 0 -d -1 -p cbr -e 512 -c 2 -a 0 -i 7 -k RTR
h -t 64.655842973 -s 0 -d -1 -p cbr -e 512 -c 2 -a 0 -i 7 -k RTR
d -t 64.655842973 -s 0 -d -1 -p cbr -e 512 -c 2 -a 0 -i 6 -k IFQ
d -t 64.655842973 -s 0 -d -1 -p cbr -e 512 -c 2 -a 0 -i 7 -k IFQ
+ -t 65.343600000 -s 1 -d -1 -p smac -e 9 -c 2 -a 0 -i 0 -k MAC 
- -t 65.343600000 -s 1 -d -1 -p smac -e 9 -c 2 -a 0 -i 0 -k MAC
h -t 65.343600000 -s 1 -d -1 -p smac -e 9 -c 2 -a 0 -i 0 -k MAC
+ -t 65.476800000 -s 0 -d -1 -p smac -e 9 -c 2 -a 0 -i 0 -k MAC 
- -t 65.476800000 -s 0 -d -1 -p smac -e 9 -c 2 -a 0 -i 0 -k MAC
h -t 65.476800000 -s 0 -d -1 -p smac -e 9 -c 2 -a 0 -i 0 -k MAC
+ -t 66.781600000 -s 1 -d -1 -p smac -e 9 -c 2 -a 0 -i 0 -k MAC 
- -t 66.781600000 -s 1 -d -1 -p smac -e 9 -c 2 -a 0 -i 0 -k MAC
h -t 66.781600000 -s 1 -d -1 -p smac -e 9 -c 2 -a 0 -i 0 -k MAC
+ -t 66.936800000 -s 0 -d -1 -p smac -e 9 -c 2 -a 0 -i 0 -k MAC 
- -t 66.936800000 -s 0 -d -1 -p smac -e 9 -c 2 -a 0 -i 0 -k MAC
h -t 66.936800000 -s 0 -d -1 -p smac -e 9 -c 2 -a 0 -i 0 -k MAC
+ -t 68.232600000 -s 1 -d -1 -p smac -e 9 -c 2 -a 0 -i 0 -k MAC 
- -t 68.232600000 -s 1 -d -1 -p smac -e 9 -c 2 -a 0 -i 0 -k MAC
h -t 68.232600000 -s 1 -d -1 -p smac -e 9 -c 2 -a 0 -i 0 -k MAC
+ -t 68.381800000 -s 0 -d -1 -p smac -e 9 -c 2 -a 0 -i 0 -k MAC 
- -t 68.381800000 -s 0 -d -1 -p smac -e 9 -c 2 -a 0 -i 0 -k MAC
h -t 68.381800000 -s 0 -d -1 -p smac -e 9 -c 2 -a 0 -i 0 -k MAC
+ -t 69.683600000 -s 1 -d -1 -p smac -e 9 -c 2 -a 0 -i 0 -k MAC 
- -t 69.683600000 -s 1 -d -1 -p smac -e 9 -c 2 -a 0 -i 0 -k MAC
h -t 69.683600000 -s 1 -d -1 -p smac -e 9 -c 2 -a 0 -i 0 -k MAC
+ -t 69.818800000 -s 0 -d -1 -p smac -e 9 -c 2 -a 0 -i 0 -k MAC 
- -t 69.818800000 -s 0 -d -1 -p smac -e 9 -c 2 -a 0 -i 0 -k MAC
h -t 69.818800000 -s 0 -d -1 -p smac -e 9 -c 2 -a 0 -i 0 -k MAC
+ -t 71.108600000 -s 1 -d -1 -p smac -e 9 -c 2 -a 0 -i 0 -k MAC 
- -t 71.108600000 -s 1 -d -1 -p smac -e 9 -c 2 -a 0 -i 0 -k MAC
h -t 71.108600000 -s 1 -d -1 -p smac -e 9 -c 2 -a 0 -i 0 -k MAC
+ -t 71.245800000 -s 0 -d -1 -p smac -e 9 -c 2 -a 0 -i 0 -k MAC 
- -t 71.245800000 -s 0 -d -1 -p smac -e 9 -c 2 -a 0 -i 0 -k MAC
h -t 71.245800000 -s 0 -d -1 -p smac -e 9 -c 2 -a 0 -i 0 -k MAC
+ -t 72.555600000 -s 1 -d -1 -p smac -e 9 -c 2 -a 0 -i 0 -k MAC 
- -t 72.555600000 -s 1 -d -1 -p smac -e 9 -c 2 -a 0 -i 0 -k MAC
h -t 72.555600000 -s 1 -d -1 -p smac -e 9 -c 2 -a 0 -i 0 -k MAC
+ -t 72.691800000 -s 0 -d -1 -p smac -e 9 -c 2 -a 0 -i 0 -k MAC 
- -t 72.691800000 -s 0 -d -1 -p smac -e 9 -c 2 -a 0 -i 0 -k MAC
h -t 72.691800000 -s 0 -d -1 -p smac -e 9 -c 2 -a 0 -i 0 -k MAC
+ -t 72.705732703 -s 0 -d -1 -p cbr -e 512 -c 2 -a 0 -i 8 -k AGT 
- -t 72.705732703 -s 0 -d -1 -p cbr -e 512 -c 2 -a 0 -i 8 -k AGT
h -t 72.705732703 -s 0 -d -1 -p cbr -e 512 -c 2 -a 0 -i 8 -k AGT
+ -t 72.705732703 -s 0 -d -1 -p cbr -e 512 -c 2 -a 0 -i 8 -k RTR 
- -t 72.705732703 -s 0 -d -1 -p cbr -e 512 -c 2 -a 0 -i 8 -k RTR
h -t 72.705732703 -s 0 -d -1 -p cbr -e 512 -c 2 -a 0 -i 8 -k RTR
+ -t 73.987600000 -s 1 -d -1 -p smac -e 9 -c 2 -a 0 -i 0 -k MAC 
- -t 73.987600000 -s 1 -d -1 -p smac -e 9 -c 2 -a 0 -i 0 -k MAC
h -t 73.987600000 -s 1 -d -1 -p smac -e 9 -c 2 -a 0 -i 0 -k MAC
+ -t 74.154800000 -s 0 -d -1 -p smac -e 9 -c 2 -a 0 -i 0 -k MAC 
- -t 74.154800000 -s 0 -d -1 -p smac -e 9 -c 2 -a 0 -i 0 -k MAC
h -t 74.154800000 -s 0 -d -1 -p smac -e 9 -c 2 -a 0 -i 0 -k MAC
+ -t 75.456600000 -s 1 -d -1 -p smac -e 9 -c 2 -a 0 -i 0 -k MAC 
- -t 75.456600000 -s 1 -d -1 -p smac -e 9 -c 2 -a 0 -i 0 -k MAC
h -t 75.456600000 -s 1 -d -1 -p smac -e 9 -c 2 -a 0 -i 0 -k MAC
+ -t 75.591800000 -s 0 -d -1 -p smac -e 9 -c 2 -a 0 -i 0 -k MAC 
- -t 75.591800000 -s 0 -d -1 -p smac -e 9 -c 2 -a 0 -i 0 -k MAC
h -t 75.591800000 -s 0 -d -1 -p smac -e 9 -c 2 -a 0 -i 0 -k MAC
+ -t 76.869600000 -s 1 -d -1 -p smac -e 9 -c 2 -a 0 -i 0 -k MAC 
- -t 76.869600000 -s 1 -d -1 -p smac -e 9 -c 2 -a 0 -i 0 -k MAC
h -t 76.869600000 -s 1 -d -1 -p smac -e 9 -c 2 -a 0 -i 0 -k MAC
+ -t 77.013800000 -s 0 -d -1 -p smac -e 9 -c 2 -a 0 -i 0 -k MAC 
- -t 77.013800000 -s 0 -d -1 -p smac -e 9 -c 2 -a 0 -i 0 -k MAC
h -t 77.013800000 -s 0 -d -1 -p smac -e 9 -c 2 -a 0 -i 0 -k MAC
+ -t 78.313600000 -s 1 -d -1 -p smac -e 9 -c 2 -a 0 -i 0 -k MAC 
- -t 78.313600000 -s 1 -d -1 -p smac -e 9 -c 2 -a 0 -i 0 -k MAC
h -t 78.313600000 -s 1 -d -1 -p smac -e 9 -c 2 -a 0 -i 0 -k MAC
+ -t 78.467800000 -s 0 -d -1 -p smac -e 9 -c 2 -a 0 -i 0 -k MAC 
- -t 78.467800000 -s 0 -d -1 -p smac -e 9 -c 2 -a 0 -i 0 -k MAC
h -t 78.467800000 -s 0 -d -1 -p smac -e 9 -c 2 -a 0 -i 0 -k MAC
+ -t 79.753600000 -s 1 -d -1 -p smac -e 9 -c 2 -a 0 -i 0 -k MAC 
- -t 79.753600000 -s 1 -d -1 -p smac -e 9 -c 2 -a 0 -i 0 -k MAC
h -t 79.753600000 -s 1 -d -1 -p smac -e 9 -c 2 -a 0 -i 0 -k MAC
+ -t 79.781883979 -s 0 -d -1 -p cbr -e 512 -c 2 -a 0 -i 9 -k AGT 
- -t 79.781883979 -s 0 -d -1 -p cbr -e 512 -c 2 -a 0 -i 9 -k AGT
h -t 79.781883979 -s 0 -d -1 -p cbr -e 512 -c 2 -a 0 -i 9 -k AGT
+ -t 79.781883979 -s 0 -d -1 -p cbr -e 512 -c 2 -a 0 -i 9 -k RTR 
- -t 79.781883979 -s 0 -d -1 -p cbr -e 512 -c 2 -a 0 -i 9 -k RTR
h -t 79.781883979 -s 0 -d -1 -p cbr -e 512 -c 2 -a 0 -i 9 -k RTR
d -t 79.781883979 -s 0 -d -1 -p cbr -e 512 -c 2 -a 0 -i 8 -k IFQ
+ -t 79.915800000 -s 0 -d -1 -p smac -e 9 -c 2 -a 0 -i 0 -k MAC 
- -t 79.915800000 -s 0 -d -1 -p smac -e 9 -c 2 -a 0 -i 0 -k MAC
h -t 79.915800000 -s 0 -d -1 -p smac -e 9 -c 2 -a 0 -i 0 -k MAC
+ -t 81.216600000 -s 1 -d -1 -p smac -e 9 -c 2 -a 0 -i 0 -k MAC 
- -t 81.216600000 -s 1 -d -1 -p smac -e 9 -c 2 -a 0 -i 0 -k MAC
h -t 81.216600000 -s 1 -d -1 -p smac -e 9 -c 2 -a 0 -i 0 -k MAC
+ -t 81.357800000 -s 0 -d -1 -p smac -e 9 -c 2 -a 0 -i 0 -k MAC 
- -t 81.357800000 -s 0 -d -1 -p smac -e 9 -c 2 -a 0 -i 0 -k MAC
h -t 81.357800000 -s 0 -d -1 -p smac -e 9 -c 2 -a 0 -i 0 -k MAC
+ -t 82.660600000 -s 1 -d -1 -p smac -e 9 -c 2 -a 0 -i 0 -k MAC 
- -t 82.660600000 -s 1 -d -1 -p smac -e 9 -c 2 -a 0 -i 0 -k MAC
h -t 82.660600000 -s 1 -d -1 -p smac -e 9 -c 2 -a 0 -i 0 -k MAC
+ -t 82.796800000 -s 0 -d -1 -p smac -e 9 -c 2 -a 0 -i 0 -k MAC 
- -t 82.796800000 -s 0 -d -1 -p smac -e 9 -c 2 -a 0 -i 0 -k MAC
h -t 82.796800000 -s 0 -d -1 -p smac -e 9 -c 2 -a 0 -i 0 -k MAC
+ -t 84.087600000 -s 1 -d -1 -p smac -e 9 -c 2 -a 0 -i 0 -k MAC 
- -t 84.087600000 -s 1 -d -1 -p smac -e 9 -c 2 -a 0 -i 0 -k MAC
h -t 84.087600000 -s 1 -d -1 -p smac -e 9 -c 2 -a 0 -i 0 -k MAC
+ -t 84.249800000 -s 0 -d -1 -p smac -e 9 -c 2 -a 0 -i 0 -k MAC 
- -t 84.249800000 -s 0 -d -1 -p smac -e 9 -c 2 -a 0 -i 0 -k MAC
h -t 84.249800000 -s 0 -d -1 -p smac -e 9 -c 2 -a 0 -i 0 -k MAC
+ -t 85.529600000 -s 1 -d -1 -p smac -e 9 -c 2 -a 0 -i 0 -k MAC 
- -t 85.529600000 -s 1 -d -1 -p smac -e 9 -c 2 -a 0 -i 0 -k MAC
h -t 85.529600000 -s 1 -d -1 -p smac -e 9 -c 2 -a 0 -i 0 -k MAC
+ -t 85.671800000 -s 0 -d -1 -p smac -e 9 -c 2 -a 0 -i 0 -k MAC 
- -t 85.671800000 -s 0 -d -1 -p smac -e 9 -c 2 -a 0 -i 0 -k MAC
h -t 85.671800000 -s 0 -d -1 -p smac -e 9 -c 2 -a 0 -i 0 -k MAC
+ -t 86.974600000 -s 1 -d -1 -p smac -e 9 -c 2 -a 0 -i 0 -k MAC 
- -t 86.974600000 -s 1 -d -1 -p smac -e 9 -c 2 -a 0 -i 0 -k MAC
h -t 86.974600000 -s 1 -d -1 -p smac -e 9 -c 2 -a 0 -i 0 -k MAC
+ -t 87.106800000 -s 0 -d -1 -p smac -e 9 -c 2 -a 0 -i 0 -k MAC 
- -t 87.106800000 -s 0 -d -1 -p smac -e 9 -c 2 -a 0 -i 0 -k MAC
h -t 87.106800000 -s 0 -d -1 -p smac -e 9 -c 2 -a 0 -i 0 -k MAC
+ -t 88.409600000 -s 1 -d -1 -p smac -e 9 -c 2 -a 0 -i 0 -k MAC 
- -t 88.409600000 -s 1 -d -1 -p smac -e 9 -c 2 -a 0 -i 0 -k MAC
h -t 88.409600000 -s 1 -d -1 -p smac -e 9 -c 2 -a 0 -i 0 -k MAC
+ -t 88.548800000 -s 0 -d -1 -p smac -e 9 -c 2 -a 0 -i 0 -k MAC 
- -t 88.548800000 -s 0 -d -1 -p smac -e 9 -c 2 -a 0 -i 0 -k MAC
h -t 88.548800000 -s 0 -d -1 -p smac -e 9 -c 2 -a 0 -i 0 -k MAC
+ -t 88.856674826 -s 0 -d -1 -p cbr -e 512 -c 2 -a 0 -i 10 -k AGT 
- -t 88.856674826 -s 0 -d -1 -p cbr -e 512 -c 2 -a 0 -i 10 -k AGT
h -t 88.856674826 -s 0 -d -1 -p cbr -e 512 -c 2 -a 0 -i 10 -k AGT
+ -t 88.856674826 -s 0 -d -1 -p cbr -e 512 -c 2 -a 0 -i 10 -k RTR 
- -t 88.856674826 -s 0 -d -1 -p cbr -e 512 -c 2 -a 0 -i 10 -k RTR
h -t 88.856674826 -s 0 -d -1 -p cbr -e 512 -c 2 -a 0 -i 10 -k RTR
d -t 88.856674826 -s 0 -d -1 -p cbr -e 512 -c 2 -a 0 -i 9 -k IFQ
+ -t 89.874600000 -s 1 -d -1 -p smac -e 9 -c 2 -a 0 -i 0 -k MAC 
- -t 89.874600000 -s 1 -d -1 -p smac -e 9 -c 2 -a 0 -i 0 -k MAC
h -t 89.874600000 -s 1 -d -1 -p smac -e 9 -c 2 -a 0 -i 0 -k MAC
+ -t 90.019800000 -s 0 -d -1 -p smac -e 9 -c 2 -a 0 -i 0 -k MAC 
- -t 90.019800000 -s 0 -d -1 -p smac -e 9 -c 2 -a 0 -i 0 -k MAC
h -t 90.019800000 -s 0 -d -1 -p smac -e 9 -c 2 -a 0 -i 0 -k MAC
+ -t 91.317600000 -s 1 -d -1 -p smac -e 9 -c 2 -a 0 -i 0 -k MAC 
- -t 91.317600000 -s 1 -d -1 -p smac -e 9 -c 2 -a 0 -i 0 -k MAC
h -t 91.317600000 -s 1 -d -1 -p smac -e 9 -c 2 -a 0 -i 0 -k MAC
+ -t 91.443800000 -s 0 -d -1 -p smac -e 9 -c 2 -a 0 -i 0 -k MAC 
- -t 91.443800000 -s 0 -d -1 -p smac -e 9 -c 2 -a 0 -i 0 -k MAC
h -t 91.443800000 -s 0 -d -1 -p smac -e 9 -c 2 -a 0 -i 0 -k MAC
+ -t 92.756600000 -s 1 -d -1 -p smac -e 9 -c 2 -a 0 -i 0 -k MAC 
- -t 92.756600000 -s 1 -d -1 -p smac -e 9 -c 2 -a 0 -i 0 -k MAC
h -t 92.756600000 -s 1 -d -1 -p smac -e 9 -c 2 -a 0 -i 0 -k MAC
+ -t 92.881800000 -s 0 -d -1 -p smac -e 9 -c 2 -a 0 -i 0 -k MAC 
- -t 92.881800000 -s 0 -d -1 -p smac -e 9 -c 2 -a 0 -i 0 -k MAC
h -t 92.881800000 -s 0 -d -1 -p smac -e 9 -c 2 -a 0 -i 0 -k MAC
+ -t 94.184600000 -s 1 -d -1 -p smac -e 9 -c 2 -a 0 -i 0 -k MAC 