s 1.000000000 _0_ AGT  --- 0 cbr 512 [0.00 0 0] [energy 1000.000000 ei 0.000 es 0.000 et 0.000 er 0.000] ------- [0:0 1:0 32 0] [0] 0 0
r 1.000000000 _0_ RTR  --- 0 cbr 512 [0.00 0 0] [energy 1000.000000 ei 0.000 es 0.000 et 0.000 er 0.000] ------- [0:0 1:0 32 0] [0] 0 0
s 1.000000000 _0_ RTR  --- 0 cbr 512 [0.00 0 0] [energy 1000.000000 ei 0.000 es 0.000 et 0.000 er 0.000] ------- [0:0 1:0 32 0] [0] 0 0
s 1.742400000 _0_ MAC  --- 0 SYNC 9 [0.13 0 0] [energy 1000.000000 ei 0.000 es 0.000 et 0.000 er 0.000] 
N -t 1.742400 -n 1 -e 998.254600
s 1.899600000 _1_ MAC  --- 0 SYNC 9 [0.12 1 0] [energy 998.254600 ei 1.742 es 0.000 et 0.000 er 0.003] 
N -t 1.899600 -n 0 -e 998.097400
s 2.044800000 _0_ MAC  --- 0 SYNC 9 [0.11 0 1] [energy 998.097400 ei 1.897 es 0.000 et 0.003 er 0.003] 
N -t 2.044800 -n 1 -e 997.952200
s 3.326600000 _1_ MAC  --- 0 SYNC 9 [0.13 1 0] [energy 997.952200 ei 2.039 es 0.000 et 0.003 er 0.006] 
N -t 3.326600 -n 0 -e 996.670400
N -t 3.459800 -n 1 -e 996.539200
N -t 3.460800 -n 1 -e 996.538199
s 3.478800000 _0_ MAC  --- 0 SYNC 9 [0.12 0 1] [energy 996.670400 ei 3.318 es 0.000 et 0.006 er 0.006] 
N -t 3.478800 -n 1 -e 996.517199
N -t 3.604000 -n 0 -e 996.395000
N -t 3.604000 -n 1 -e 996.393999
N -t 3.605000 -n 0 -e 996.393999
N -t 3.605000 -n 1 -e 996.392998
N -t 3.748200 -n 0 -e 996.249799
N -t 3.748200 -n 1 -e 996.248798
N -t 3.749200 -n 0 -e 996.248798
N -t 3.749200 -n 1 -e 996.247797
N -t 3.892400 -n 0 -e 996.104598
N -t 3.892400 -n 1 -e 996.103597
N -t 3.893400 -n 0 -e 996.103597
N -t 3.893400 -n 1 -e 996.102596
N -t 4.036600 -n 0 -e 995.959397
N -t 4.036600 -n 1 -e 995.958396
N -t 4.037600 -n 0 -e 995.958396
N -t 4.037600 -n 1 -e 995.957395
N -t 4.180800 -n 0 -e 995.814196
N -t 4.180800 -n 1 -e 995.813195
N -t 4.181800 -n 0 -e 995.813195
N -t 4.181800 -n 1 -e 995.812194
N -t 4.325000 -n 0 -e 995.668995
N -t 4.325000 -n 1 -e 995.667994
N -t 4.326000 -n 0 -e 995.667994
N -t 4.326000 -n 1 -e 995.666993
N -t 4.469200 -n 0 -e 995.523794
N -t 4.469200 -n 1 -e 995.522793
N -t 4.470200 -n 0 -e 995.522793
N -t 4.470200 -n 1 -e 995.521792
N -t 4.613400 -n 0 -e 995.378593
N -t 4.613400 -n 1 -e 995.377592
N -t 4.614400 -n 0 -e 995.377592
N -t 4.614400 -n 1 -e 995.376591
N -t 4.757600 -n 0 -e 995.233392
N -t 4.757600 -n 1 -e 995.232391
N -t 4.758600 -n 0 -e 995.232391
N -t 4.758600 -n 1 -e 995.231390
s 4.778600000 _1_ MAC  --- 0 SYNC 9 [0.12 1 0] [energy 995.231390 ei 4.734 es 0.000 et 0.006 er 0.009] 
N -t 4.778600 -n 0 -e 995.209391
N -t 4.901800 -n 1 -e 995.087190
N -t 4.901800 -n 0 -e 995.088191
N -t 4.902800 -n 1 -e 995.086189
N -t 4.902800 -n 0 -e 995.087190
s 4.924800000 _0_ MAC  --- 0 SYNC 9 [0.12 0 1] [energy 995.087190 ei 4.875 es 0.000 et 0.009 er 0.009] 
N -t 4.924800 -n 1 -e 995.061189
N -t 5.046000 -n 0 -e 994.942990
N -t 5.046000 -n 1 -e 994.941989
N -t 5.047000 -n 0 -e 994.941989
N -t 5.047000 -n 1 -e 994.940988
N -t 5.190200 -n 0 -e 994.797789
N -t 5.190200 -n 1 -e 994.796788
N -t 5.191200 -n 0 -e 994.796788
N -t 5.191200 -n 1 -e 994.795787
N -t 5.334400 -n 0 -e 994.652588
N -t 5.334400 -n 1 -e 994.651587
N -t 5.335400 -n 0 -e 994.651587
N -t 5.335400 -n 1 -e 994.650586
N -t 5.478600 -n 0 -e 994.507387
N -t 5.478600 -n 1 -e 994.506386
N -t 5.479600 -n 0 -e 994.506386
N -t 5.479600 -n 1 -e 994.505385
N -t 5.622800 -n 0 -e 994.362186
N -t 5.622800 -n 1 -e 994.361185
N -t 5.623800 -n 0 -e 994.361185
N -t 5.623800 -n 1 -e 994.360184
N -t 5.767000 -n 0 -e 994.216985
N -t 5.767000 -n 1 -e 994.215984
N -t 5.768000 -n 0 -e 994.215984
N -t 5.768000 -n 1 -e 994.214983
N -t 5.911200 -n 0 -e 994.071784
N -t 5.911200 -n 1 -e 994.070783
N -t 5.912200 -n 0 -e 994.070783
N -t 5.912200 -n 1 -e 994.069782
s 6.003395772 _0_ AGT  --- 1 cbr 512 [0.00 0 0] [energy 994.070783 ei 5.874 es 0.000 et 0.012 er 0.009] ------- [0:0 1:0 32 0] [1] 0 0
r 6.003395772 _0_ RTR  --- 1 cbr 512 [0.00 0 0] [energy 994.070783 ei 5.874 es 0.000 et 0.012 er 0.009] ------- [0:0 1:0 32 0] [1] 0 0
s 6.003395772 _0_ RTR  --- 1 cbr 512 [0.00 0 0] [energy 994.070783 ei 5.874 es 0.000 et 0.012 er 0.009] ------- [0:0 1:0 32 0] [1] 0 0
D 6.003395772 _0_ IFQ  ARP 0 cbr 512 [0.00 0 0] [energy 994.070783 ei 5.874 es 0.000 et 0.012 er 0.009] ------- [0:0 1:0 32 0] [0] 0 0
N -t 6.055400 -n 0 -e 993.926583
N -t 6.055400 -n 1 -e 993.925582
N -t 6.056400 -n 0 -e 993.925582
N -t 6.056400 -n 1 -e 993.924581
N -t 6.199600 -n 0 -e 993.781382
N -t 6.199600 -n 1 -e 993.780381
N -t 6.200600 -n 0 -e 993.780381
N -t 6.200600 -n 1 -e 993.779380
s 6.223600000 _1_ MAC  --- 0 SYNC 9 [0.12 1 0] [energy 993.779380 ei 6.160 es 0.000 et 0.009 er 0.012] 
N -t 6.223600 -n 0 -e 993.754381
N -t 6.343800 -n 1 -e 993.635180
N -t 6.343800 -n 0 -e 993.636181
N -t 6.344800 -n 1 -e 993.634179
N -t 6.344800 -n 0 -e 993.635180
s 6.366800000 _0_ MAC  --- 0 SYNC 9 [0.12 0 1] [energy 993.635180 ei 6.301 es 0.000 et 0.012 er 0.012] 
N -t 6.366800 -n 1 -e 993.609179
N -t 6.488000 -n 0 -e 993.490980
N -t 6.488000 -n 1 -e 993.489979
N -t 6.489000 -n 0 -e 993.489979
N -t 6.489000 -n 1 -e 993.488978
N -t 6.632200 -n 0 -e 993.345779
N -t 6.632200 -n 1 -e 993.344778
N -t 6.633200 -n 0 -e 993.344778
N -t 6.633200 -n 1 -e 993.343777
N -t 6.776400 -n 0 -e 993.200578
N -t 6.776400 -n 1 -e 993.199577
N -t 6.777400 -n 0 -e 993.199577
N -t 6.777400 -n 1 -e 993.198576
N -t 6.920600 -n 0 -e 993.055377
N -t 6.920600 -n 1 -e 993.054376
N -t 6.921600 -n 0 -e 993.054376
N -t 6.921600 -n 1 -e 993.053375
N -t 7.064800 -n 0 -e 992.910176
N -t 7.064800 -n 1 -e 992.909175
N -t 7.065800 -n 0 -e 992.909175
N -t 7.065800 -n 1 -e 992.908174
N -t 7.209000 -n 0 -e 992.764975
N -t 7.209000 -n 1 -e 992.763974
N -t 7.210000 -n 0 -e 992.763974
N -t 7.210000 -n 1 -e 992.762973
N -t 7.353200 -n 0 -e 992.619774
N -t 7.353200 -n 1 -e 992.618773
N -t 7.354200 -n 0 -e 992.618773
N -t 7.354200 -n 1 -e 992.617772
N -t 7.497400 -n 0 -e 992.474573
N -t 7.497400 -n 1 -e 992.473572
N -t 7.498400 -n 0 -e 992.473572
N -t 7.498400 -n 1 -e 992.472571
N -t 7.641600 -n 0 -e 992.329372
N -t 7.641600 -n 1 -e 992.328371
N -t 7.642600 -n 0 -e 992.328371
N -t 7.642600 -n 1 -e 992.327370
s 7.654600000 _1_ MAC  --- 0 SYNC 9 [0.13 1 0] [energy 992.327370 ei 7.586 es 0.000 et 0.012 er 0.015] 
N -t 7.654600 -n 0 -e 992.313371
N -t 7.785800 -n 1 -e 992.183170
N -t 7.785800 -n 0 -e 992.184171
N -t 7.786800 -n 1 -e 992.182169
N -t 7.786800 -n 0 -e 992.183170
s 7.823800000 _0_ MAC  --- 0 SYNC 9 [0.10 0 1] [energy 992.183170 ei 7.727 es 0.000 et 0.015 er 0.015] 
N -t 7.823800 -n 1 -e 992.142169
N -t 7.930000 -n 0 -e 992.038970
N -t 7.930000 -n 1 -e 992.037969
N -t 7.931000 -n 0 -e 992.037969
N -t 7.931000 -n 1 -e 992.036968
N -t 8.074200 -n 0 -e 991.893769
N -t 8.074200 -n 1 -e 991.892768
N -t 8.075200 -n 0 -e 991.892768
N -t 8.075200 -n 1 -e 991.891767
N -t 8.218400 -n 0 -e 991.748568
N -t 8.218400 -n 1 -e 991.747567
N -t 8.219400 -n 0 -e 991.747567
N -t 8.219400 -n 1 -e 991.746566
N -t 8.362600 -n 0 -e 991.603367
N -t 8.362600 -n 1 -e 991.602366
N -t 8.363600 -n 0 -e 991.602366
N -t 8.363600 -n 1 -e 991.601365
N -t 8.506800 -n 0 -e 991.458166
N -t 8.506800 -n 1 -e 991.457165
N -t 8.507800 -n 0 -e 991.457165
N -t 8.507800 -n 1 -e 991.456164
N -t 8.651000 -n 0 -e 991.312965
N -t 8.651000 -n 1 -e 991.311964
N -t 8.652000 -n 0 -e 991.311964
N -t 8.652000 -n 1 -e 991.310963
N -t 8.795200 -n 0 -e 991.167764
N -t 8.795200 -n 1 -e 991.166763
N -t 8.796200 -n 0 -e 991.166763
N -t 8.796200 -n 1 -e 991.165762
N -t 8.939400 -n 0 -e 991.022563
N -t 8.939400 -n 1 -e 991.021562
N -t 8.940400 -n 0 -e 991.021562
N -t 8.940400 -n 1 -e 991.020561
N -t 9.083600 -n 0 -e 990.877362
N -t 9.083600 -n 1 -e 990.876361
N -t 9.084600 -n 0 -e 990.876361
N -t 9.084600 -n 1 -e 990.875360
s 9.102600000 _1_ MAC  --- 0 SYNC 9 [0.12 1 0] [energy 990.875360 ei 9.012 es 0.000 et 0.015 er 0.018] 
N -t 9.102600 -n 0 -e 990.855361
N -t 9.227800 -n 1 -e 990.731160
N -t 9.227800 -n 0 -e 990.732161
N -t 9.228800 -n 1 -e 990.730159
N -t 9.228800 -n 0 -e 990.731160
s 9.256800000 _0_ MAC  --- 0 SYNC 9 [0.11 0 1] [energy 990.731160 ei 9.153 es 0.000 et 0.018 er 0.018] 
N -t 9.256800 -n 1 -e 990.699159
N -t 9.372000 -n 0 -e 990.586960
N -t 9.372000 -n 1 -e 990.585959
N -t 9.373000 -n 0 -e 990.585959
N -t 9.373000 -n 1 -e 990.584958
N -t 9.516200 -n 0 -e 990.441759
N -t 9.516200 -n 1 -e 990.440758
N -t 9.517200 -n 0 -e 990.440758
N -t 9.517200 -n 1 -e 990.439757
N -t 9.660400 -n 0 -e 990.296558
N -t 9.660400 -n 1 -e 990.295557
N -t 9.661400 -n 0 -e 990.295557
N -t 9.661400 -n 1 -e 990.294556
N -t 9.804600 -n 0 -e 990.151357
N -t 9.804600 -n 1 -e 990.150356
N -t 9.805600 -n 0 -e 990.150356
N -t 9.805600 -n 1 -e 990.149355
N -t 9.948800 -n 0 -e 990.006156
N -t 9.948800 -n 1 -e 990.005155
N -t 9.949800 -n 0 -e 990.005155
N -t 9.949800 -n 1 -e 990.004154
N -t 10.093000 -n 0 -e 989.860955
N -t 10.093000 -n 1 -e 989.859954
N -t 10.094000 -n 0 -e 989.859954
N -t 10.094000 -n 1 -e 989.858953
N -t 10.237200 -n 0 -e 989.715754
N -t 10.237200 -n 1 -e 989.714753
N -t 10.238200 -n 0 -e 989.714753
N -t 10.238200 -n 1 -e 989.713752
N -t 10.381400 -n 0 -e 989.570553
N -t 10.381400 -n 1 -e 989.569552
N -t 10.382400 -n 0 -e 989.569552
N -t 10.382400 -n 1 -e 989.568551
N -t 10.525600 -n 0 -e 989.425352
N -t 10.525600 -n 1 -e 989.424351
N -t 10.526600 -n 0 -e 989.424351
N -t 10.526600 -n 1 -e 989.423350
s 10.548600000 _1_ MAC  --- 0 SYNC 9 [0.12 1 0] [energy 989.423350 ei 10.438 es 0.000 et 0.018 er 0.021] 
N -t 10.548600 -n 0 -e 989.399351
N -t 10.669800 -n 1 -e 989.279150
N -t 10.669800 -n 0 -e 989.280151
N -t 10.670800 -n 1 -e 989.278149
N -t 10.670800 -n 0 -e 989.279150
s 10.688800000 _0_ MAC  --- 0 SYNC 9 [0.12 0 1] [energy 989.279150 ei 10.579 es 0.000 et 0.021 er 0.021] 
N -t 10.688800 -n 1 -e 989.257149
N -t 10.814000 -n 0 -e 989.134950
N -t 10.814000 -n 1 -e 989.133949
N -t 10.815000 -n 0 -e 989.133949
N -t 10.815000 -n 1 -e 989.132948
N -t 10.958200 -n 0 -e 988.989749
N -t 10.958200 -n 1 -e 988.988748
N -t 10.959200 -n 0 -e 988.988748
N -t 10.959200 -n 1 -e 988.987747
N -t 11.102400 -n 0 -e 988.844548
N -t 11.102400 -n 1 -e 988.843547
N -t 11.103400 -n 0 -e 988.843547
N -t 11.103400 -n 1 -e 988.842546
N -t 11.246600 -n 0 -e 988.699347
N -t 11.246600 -n 1 -e 988.698346
N -t 11.247600 -n 0 -e 988.698346
N -t 11.247600 -n 1 -e 988.697345
N -t 11.390800 -n 0 -e 988.554146
N -t 11.390800 -n 1 -e 988.553145
N -t 11.391800 -n 0 -e 988.553145
N -t 11.391800 -n 1 -e 988.552144
N -t 11.535000 -n 0 -e 988.408945
N -t 11.535000 -n 1 -e 988.407944
N -t 11.536000 -n 0 -e 988.407944
N -t 11.536000 -n 1 -e 988.406943
N -t 11.679200 -n 0 -e 988.263744
N -t 11.679200 -n 1 -e 988.262743
N -t 11.680200 -n 0 -e 988.262743
N -t 11.680200 -n 1 -e 988.261742
N -t 11.823400 -n 0 -e 988.118543
N -t 11.823400 -n 1 -e 988.117542
N -t 11.824400 -n 0 -e 988.117542
N -t 11.824400 -n 1 -e 988.116541
N -t 11.967600 -n 0 -e 987.973342
N -t 11.967600 -n 1 -e 987.972341
N -t 11.968600 -n 0 -e 987.972341
N -t 11.968600 -n 1 -e 987.971340
s 12.002600000 _1_ MAC  --- 0 SYNC 9 [0.11 1 0] [energy 987.971340 ei 11.864 es 0.000 et 0.021 er 0.024] 
N -t 12.002600 -n 0 -e 987.935341
N -t 12.111800 -n 1 -e 987.827140
N -t 12.111800 -n 0 -e 987.828141
N -t 12.112800 -n 1 -e 987.826139
N -t 12.112800 -n 0 -e 987.827140
s 12.139800000 _0_ MAC  --- 0 SYNC 9 [0.11 0 1] [energy 987.827140 ei 12.005 es 0.000 et 0.024 er 0.024] 
N -t 12.139800 -n 1 -e 987.796139
N -t 12.256000 -n 0 -e 987.682940
N -t 12.256000 -n 1 -e 987.681939
N -t 12.257000 -n 0 -e 987.681939
N -t 12.257000 -n 1 -e 987.680938
N -t 12.400200 -n 0 -e 987.537739
N -t 12.400200 -n 1 -e 987.536738
N -t 12.401200 -n 0 -e 987.536738
N -t 12.401200 -n 1 -e 987.535737
N -t 12.544400 -n 0 -e 987.392538
N -t 12.544400 -n 1 -e 987.391537
N -t 12.545400 -n 0 -e 987.391537
N -t 12.545400 -n 1 -e 987.390536
N -t 12.688600 -n 0 -e 987.247337
N -t 12.688600 -n 1 -e 987.246336
N -t 12.689600 -n 0 -e 987.246336
N -t 12.689600 -n 1 -e 987.245335
N -t 12.832800 -n 0 -e 987.102136
N -t 12.832800 -n 1 -e 987.101135
N -t 12.833800 -n 0 -e 987.101135
N -t 12.833800 -n 1 -e 987.100134
N -t 12.977000 -n 0 -e 986.956935
N -t 12.977000 -n 1 -e 986.955934
N -t 12.978000 -n 0 -e 986.955934
N -t 12.978000 -n 1 -e 986.954933
N -t 13.121200 -n 0 -e 986.811734
N -t 13.121200 -n 1 -e 986.810733
N -t 13.122200 -n 0 -e 986.810733
N -t 13.122200 -n 1 -e 986.809732
N -t 13.265400 -n 0 -e 986.666533
N -t 13.265400 -n 1 -e 986.665532
N -t 13.266400 -n 0 -e 986.665532
N -t 13.266400 -n 1 -e 986.664531
N -t 13.409600 -n 0 -e 986.521332
N -t 13.409600 -n 1 -e 986.520331
N -t 13.410600 -n 0 -e 986.520331
N -t 13.410600 -n 1 -e 986.519330
s 13.436600000 _1_ MAC  --- 0 SYNC 9 [0.11 1 0] [energy 986.519330 ei 13.290 es 0.000 et 0.024 er 0.027] 
N -t 13.436600 -n 0 -e 986.491331
N -t 13.553800 -n 1 -e 986.375130
N -t 13.553800 -n 0 -e 986.376131
N -t 13.554800 -n 1 -e 986.374129
N -t 13.554800 -n 0 -e 986.375130
s 13.574800000 _0_ MAC  --- 0 SYNC 9 [0.12 0 1] [energy 986.375130 ei 13.431 es 0.000 et 0.027 er 0.027] 
N -t 13.574800 -n 1 -e 986.351129
N -t 13.698000 -n 0 -e 986.230930
N -t 13.698000 -n 1 -e 986.229929
N -t 13.699000 -n 0 -e 986.229929
N -t 13.699000 -n 1 -e 986.228928
N -t 13.842200 -n 0 -e 986.085729
N -t 13.842200 -n 1 -e 986.084728
N -t 13.843200 -n 0 -e 986.084728
N -t 13.843200 -n 1 -e 986.083727
N -t 13.986400 -n 0 -e 985.940528
N -t 13.986400 -n 1 -e 985.939527
N -t 13.987400 -n 0 -e 985.939527
N -t 13.987400 -n 1 -e 985.938526
N -t 14.130600 -n 0 -e 985.795327
N -t 14.130600 -n 1 -e 985.794326
N -t 14.131600 -n 0 -e 985.794326
N -t 14.131600 -n 1 -e 985.793325
N -t 14.274800 -n 0 -e 985.650126
N -t 14.274800 -n 1 -e 985.649125
N -t 14.275800 -n 0 -e 985.649125
N -t 14.275800 -n 1 -e 985.648124
N -t 14.419000 -n 0 -e 985.504925
N -t 14.419000 -n 1 -e 985.503924
N -t 14.420000 -n 0 -e 985.503924
N -t 14.420000 -n 1 -e 985.502923
N -t 14.563200 -n 0 -e 985.359724
N -t 14.563200 -n 1 -e 985.358723
N -t 14.564200 -n 0 -e 985.358723
N -t 14.564200 -n 1 -e 985.357722
N -t 14.707400 -n 0 -e 985.214523
N -t 14.707400 -n 1 -e 985.213522
N -t 14.708400 -n 0 -e 985.213522
N -t 14.708400 -n 1 -e 985.212521
N -t 14.851600 -n 0 -e 985.069322
N -t 14.851600 -n 1 -e 985.068321
N -t 14.852600 -n 0 -e 985.068321
N -t 14.852600 -n 1 -e 985.067320
s 14.873600000 _1_ MAC  --- 0 SYNC 9 [0.12 1 0] [energy 985.067320 ei 14.716 es 0.000 et 0.027 er 0.030] 
N -t 14.873600 -n 0 -e 985.044321
N -t 14.995800 -n 1 -e 984.923120
N -t 14.995800 -n 0 -e 984.924121
N -t 14.996800 -n 1 -e 984.922119
N -t 14.996800 -n 0 -e 984.923120
s 15.007800000 _0_ MAC  --- 0 SYNC 9 [0.13 0 1] [energy 984.923120 ei 14.857 es 0.000 et 0.030 er 0.030] 
N -t 15.007800 -n 1 -e 984.908119
N -t 15.140000 -n 0 -e 984.778920
N -t 15.140000 -n 1 -e 984.777919
N -t 15.141000 -n 0 -e 984.777919
N -t 15.141000 -n 1 -e 984.776918
N -t 15.284200 -n 0 -e 984.633719
N -t 15.284200 -n 1 -e 984.632718
N -t 15.285200 -n 0 -e 984.632718
N -t 15.285200 -n 1 -e 984.631717
N -t 15.428400 -n 0 -e 984.488518
N -t 15.428400 -n 1 -e 984.487517
N -t 15.429400 -n 0 -e 984.487517
N -t 15.429400 -n 1 -e 984.486516
N -t 15.572600 -n 0 -e 984.343317
N -t 15.572600 -n 1 -e 984.342316
N -t 15.573600 -n 0 -e 984.342316
N -t 15.573600 -n 1 -e 984.341315
N -t 15.716800 -n 0 -e 984.198116
N -t 15.716800 -n 1 -e 984.197115
N -t 15.717800 -n 0 -e 984.197115
N -t 15.717800 -n 1 -e 984.196114
N -t 15.861000 -n 0 -e 984.052915
N -t 15.861000 -n 1 -e 984.051914
N -t 15.862000 -n 0 -e 984.051914
N -t 15.862000 -n 1 -e 984.050913
N -t 16.005200 -n 0 -e 983.907714
N -t 16.005200 -n 1 -e 983.906713
N -t 16.006200 -n 0 -e 983.906713
N -t 16.006200 -n 1 -e 983.905712
N -t 16.149400 -n 0 -e 983.762513
N -t 16.149400 -n 1 -e 983.761512
N -t 16.150400 -n 0 -e 983.761512
N -t 16.150400 -n 1 -e 983.760511
N -t 16.293600 -n 0 -e 983.617312
N -t 16.293600 -n 1 -e 983.616311
N -t 16.294600 -n 0 -e 983.616311
N -t 16.294600 -n 1 -e 983.615310
s 16.316600000 _1_ MAC  --- 0 SYNC 9 [0.12 1 0] [energy 983.615310 ei 16.142 es 0.000 et 0.030 er 0.033] 
N -t 16.316600 -n 0 -e 983.591311
N -t 16.437800 -n 1 -e 983.471110
N -t 16.437800 -n 0 -e 983.472111
N -t 16.438800 -n 1 -e 983.470109
N -t 16.438800 -n 0 -e 983.471110
s 16.470800000 _0_ MAC  --- 0 SYNC 9 [0.11 0 1] [energy 983.471110 ei 16.283 es 0.000 et 0.033 er 0.033] 
N -t 16.470800 -n 1 -e 983.435109
N -t 16.582000 -n 0 -e 983.326910
N -t 16.582000 -n 1 -e 983.325909
N -t 16.583000 -n 0 -e 983.325909
N -t 16.583000 -n 1 -e 983.324908
N -t 16.726200 -n 0 -e 983.181709
N -t 16.726200 -n 1 -e 983.180708
N -t 16.727200 -n 0 -e 983.180708
N -t 16.727200 -n 1 -e 983.179707
N -t 16.870400 -n 0 -e 983.036508
N -t 16.870400 -n 1 -e 983.035507
N -t 16.871400 -n 0 -e 983.035507
N -t 16.871400 -n 1 -e 983.034506
N -t 17.014600 -n 0 -e 982.891307
N -t 17.014600 -n 1 -e 982.890306
N -t 17.015600 -n 0 -e 982.890306
N -t 17.015600 -n 1 -e 982.889305
N -t 17.158800 -n 0 -e 982.746106
N -t 17.158800 -n 1 -e 982.745105
N -t 17.159800 -n 0 -e 982.745105
N -t 17.159800 -n 1 -e 982.744104
N -t 17.303000 -n 0 -e 982.600905
N -t 17.303000 -n 1 -e 982.599904
N -t 17.304000 -n 0 -e 982.599904
N -t 17.304000 -n 1 -e 982.598903
s 17.392047205 _0_ AGT  --- 2 cbr 512 [0.00 0 0] [energy 982.599904 ei 17.139 es 0.000 et 0.036 er 0.033] ------- [0:0 1:0 32 0] [2] 0 0
r 17.392047205 _0_ RTR  --- 2 cbr 512 [0.00 0 0] [energy 982.599904 ei 17.139 es 0.000 et 0.036 er 0.033] ------- [0:0 1:0 32 0] [2] 0 0
s 17.392047205 _0_ RTR  --- 2 cbr 512 [0.00 0 0] [energy 982.599904 ei 17.139 es 0.000 et 0.036 er 0.033] ------- [0:0 1:0 32 0] [2] 0 0
D 17.392047205 _0_ IFQ  ARP 1 cbr 512 [0.00 0 0] [energy 982.599904 ei 17.139 es 0.000 et 0.036 er 0.033] ------- [0:0 1:0 32 0] [1] 0 0
N -t 17.447200 -n 0 -e 982.455704
N -t 17.447200 -n 1 -e 982.454703
N -t 17.448200 -n 0 -e 982.454703
N -t 17.448200 -n 1 -e 982.453702
N -t 17.591400 -n 0 -e 982.310503
N -t 17.591400 -n 1 -e 982.309502
N -t 17.592400 -n 0 -e 982.309502
N -t 17.592400 -n 1 -e 982.308501
N -t 17.735600 -n 0 -e 982.165302
N -t 17.735600 -n 1 -e 982.164301
N -t 17.736600 -n 0 -e 982.164301
N -t 17.736600 -n 1 -e 982.163300
s 17.775600000 _1_ MAC  --- 0 SYNC 9 [0.10 1 0] [energy 982.163300 ei 17.568 es 0.000 et 0.033 er 0.036] 
N -t 17.775600 -n 0 -e 982.122301
N -t 17.879800 -n 1 -e 982.019100
N -t 17.879800 -n 0 -e 982.020101
N -t 17.880800 -n 1 -e 982.018099
N -t 17.880800 -n 0 -e 982.019100
s 17.910800000 _0_ MAC  --- 0 SYNC 9 [0.11 0 1] [energy 982.019100 ei 17.709 es 0.000 et 0.036 er 0.036] 
N -t 17.910800 -n 1 -e 981.985099
N -t 18.024000 -n 0 -e 981.874900
N -t 18.024000 -n 1 -e 981.873899
N -t 18.025000 -n 0 -e 981.873899
N -t 18.025000 -n 1 -e 981.872898
N -t 18.168200 -n 0 -e 981.729699
N -t 18.168200 -n 1 -e 981.728698
N -t 18.169200 -n 0 -e 981.728698
N -t 18.169200 -n 1 -e 981.727697
N -t 18.312400 -n 0 -e 981.584498
N -t 18.312400 -n 1 -e 981.583497
N -t 18.313400 -n 0 -e 981.583497
N -t 18.313400 -n 1 -e 981.582496
N -t 18.456600 -n 0 -e 981.439297
N -t 18.456600 -n 1 -e 981.438296
N -t 18.457600 -n 0 -e 981.438296
N -t 18.457600 -n 1 -e 981.437295
N -t 18.600800 -n 0 -e 981.294096
N -t 18.600800 -n 1 -e 981.293095
N -t 18.601800 -n 0 -e 981.293095
N -t 18.601800 -n 1 -e 981.292094
N -t 18.745000 -n 0 -e 981.148895
N -t 18.745000 -n 1 -e 981.147894
N -t 18.746000 -n 0 -e 981.147894
N -t 18.746000 -n 1 -e 981.146893
N -t 18.889200 -n 0 -e 981.003694
N -t 18.889200 -n 1 -e 981.002693
N -t 18.890200 -n 0 -e 981.002693
N -t 18.890200 -n 1 -e 981.001692
N -t 19.033400 -n 0 -e 980.858493
N -t 19.033400 -n 1 -e 980.857492
N -t 19.034400 -n 0 -e 980.857492
N -t 19.034400 -n 1 -e 980.856491
N -t 19.177600 -n 0 -e 980.713292
N -t 19.177600 -n 1 -e 980.712291
N -t 19.178600 -n 0 -e 980.712291
N -t 19.178600 -n 1 -e 980.711290
s 19.215600000 _1_ MAC  --- 0 SYNC 9 [0.10 1 0] [energy 980.711290 ei 18.994 es 0.000 et 0.036 er 0.039] 
N -t 19.215600 -n 0 -e 980.672291
N -t 19.321800 -n 1 -e 980.567090
N -t 19.321800 -n 0 -e 980.568091
N -t 19.322800 -n 1 -e 980.566089
N -t 19.322800 -n 0 -e 980.567090
s 19.350800000 _0_ MAC  --- 0 SYNC 9 [0.11 0 1] [energy 980.567090 ei 19.135 es 0.000 et 0.039 er 0.039] 
N -t 19.350800 -n 1 -e 980.535089
N -t 19.466000 -n 0 -e 980.422890
N -t 19.466000 -n 1 -e 980.421889
N -t 19.467000 -n 0 -e 980.421889
N -t 19.467000 -n 1 -e 980.420888
N -t 19.610200 -n 0 -e 980.277689
N -t 19.610200 -n 1 -e 980.276688
N -t 19.611200 -n 0 -e 980.276688
N -t 19.611200 -n 1 -e 980.275687
N -t 19.754400 -n 0 -e 980.132488
N -t 19.754400 -n 1 -e 980.131487
N -t 19.755400 -n 0 -e 980.131487
N -t 19.755400 -n 1 -e 980.130486
N -t 19.898600 -n 0 -e 979.987287
N -t 19.898600 -n 1 -e 979.986286
N -t 19.899600 -n 0 -e 979.986286
N -t 19.899600 -n 1 -e 979.985285
N -t 20.042800 -n 0 -e 979.842086
N -t 20.042800 -n 1 -e 979.841085
N -t 20.043800 -n 0 -e 979.841085
N -t 20.043800 -n 1 -e 979.840084
N -t 20.187000 -n 0 -e 979.696885
N -t 20.187000 -n 1 -e 979.695884
N -t 20.188000 -n 0 -e 979.695884
N -t 20.188000 -n 1 -e 979.694883
N -t 20.331200 -n 0 -e 979.551684
N -t 20.331200 -n 1 -e 979.550683
N -t 20.332200 -n 0 -e 979.550683
N -t 20.332200 -n 1 -e 979.549682
N -t 20.475400 -n 0 -e 979.406483
N -t 20.475400 -n 1 -e 979.405482
N -t 20.476400 -n 0 -e 979.405482
N -t 20.476400 -n 1 -e 979.404481
N -t 20.619600 -n 0 -e 979.261282
N -t 20.619600 -n 1 -e 979.260281
N -t 20.620600 -n 0 -e 979.260281
N -t 20.620600 -n 1 -e 979.259280
s 20.632600000 _1_ MAC  --- 0 SYNC 9 [0.13 1 0] [energy 979.259280 ei 20.420 es 0.000 et 0.039 er 0.042] 
N -t 20.632600 -n 0 -e 979.245281
N -t 20.763800 -n 1 -e 979.115080
N -t 20.763800 -n 0 -e 979.116081
N -t 20.764800 -n 1 -e 979.114079
N -t 20.764800 -n 0 -e 979.115080
s 20.789800000 _0_ MAC  --- 0 SYNC 9 [0.12 0 1] [energy 979.115080 ei 20.561 es 0.000 et 0.042 er 0.042] 
N -t 20.789800 -n 1 -e 979.086079
N -t 20.908000 -n 0 -e 978.970880
N -t 20.908000 -n 1 -e 978.969879
N -t 20.909000 -n 0 -e 978.969879
N -t 20.909000 -n 1 -e 978.968878
N -t 21.052200 -n 0 -e 978.825679
N -t 21.052200 -n 1 -e 978.824678
N -t 21.053200 -n 0 -e 978.824678
N -t 21.053200 -n 1 -e 978.823677
N -t 21.196400 -n 0 -e 978.680478
N -t 21.196400 -n 1 -e 978.679477
N -t 21.197400 -n 0 -e 978.679477
N -t 21.197400 -n 1 -e 978.678476
N -t 21.340600 -n 0 -e 978.535277
N -t 21.340600 -n 1 -e 978.534276
N -t 21.341600 -n 0 -e 978.534276
N -t 21.341600 -n 1 -e 978.533275
N -t 21.484800 -n 0 -e 978.390076
N -t 21.484800 -n 1 -e 978.389075
N -t 21.485800 -n 0 -e 978.389075
N -t 21.485800 -n 1 -e 978.388074
N -t 21.629000 -n 0 -e 978.244875
N -t 21.629000 -n 1 -e 978.243874
N -t 21.630000 -n 0 -e 978.243874
N -t 21.630000 -n 1 -e 978.242873
N -t 21.773200 -n 0 -e 978.099674
N -t 21.773200 -n 1 -e 978.098673
N -t 21.774200 -n 0 -e 978.098673
N -t 21.774200 -n 1 -e 978.097672
N -t 21.917400 -n 0 -e 977.954473
N -t 21.917400 -n 1 -e 977.953472
N -t 21.918400 -n 0 -e 977.953472
N -t 21.918400 -n 1 -e 977.952471
N -t 22.061600 -n 0 -e 977.809272
N -t 22.061600 -n 1 -e 977.808271
N -t 22.062600 -n 0 -e 977.808271
N -t 22.062600 -n 1 -e 977.807270
s 22.090600000 _1_ MAC  --- 0 SYNC 9 [0.11 1 0] [energy 977.807270 ei 21.846 es 0.000 et 0.042 er 0.045] 
N -t 22.090600 -n 0 -e 977.777271
N -t 22.205800 -n 1 -e 977.663070
N -t 22.205800 -n 0 -e 977.664071
N -t 22.206800 -n 1 -e 977.662069
N -t 22.206800 -n 0 -e 977.663070
s 22.223800000 _0_ MAC  --- 0 SYNC 9 [0.12 0 1] [energy 977.663070 ei 21.987 es 0.000 et 0.045 er 0.045] 
N -t 22.223800 -n 1 -e 977.642069
N -t 22.350000 -n 0 -e 977.518870
N -t 22.350000 -n 1 -e 977.517869
N -t 22.351000 -n 0 -e 977.517869
N -t 22.351000 -n 1 -e 977.516868
N -t 22.494200 -n 0 -e 977.373669
N -t 22.494200 -n 1 -e 977.372668
N -t 22.495200 -n 0 -e 977.372668
N -t 22.495200 -n 1 -e 977.371667
N -t 22.638400 -n 0 -e 977.228468
N -t 22.638400 -n 1 -e 977.227467
N -t 22.639400 -n 0 -e 977.227467
N -t 22.639400 -n 1 -e 977.226466
N -t 22.782600 -n 0 -e 977.083267
N -t 22.782600 -n 1 -e 977.082266
N -t 22.783600 -n 0 -e 977.082266
N -t 22.783600 -n 1 -e 977.081265
N -t 22.926800 -n 0 -e 976.938066
N -t 22.926800 -n 1 -e 976.937065
N -t 22.927800 -n 0 -e 976.937065
N -t 22.927800 -n 1 -e 976.936064
N -t 23.071000 -n 0 -e 976.792865
N -t 23.071000 -n 1 -e 976.791864
N -t 23.072000 -n 0 -e 976.791864
N -t 23.072000 -n 1 -e 976.790863
N -t 23.215200 -n 0 -e 976.647664
N -t 23.215200 -n 1 -e 976.646663
N -t 23.216200 -n 0 -e 976.646663
N -t 23.216200 -n 1 -e 976.645662
N -t 23.359400 -n 0 -e 976.502463
N -t 23.359400 -n 1 -e 976.501462
N -t 23.360400 -n 0 -e 976.501462
N -t 23.360400 -n 1 -e 976.500461
N -t 23.503600 -n 0 -e 976.357262
N -t 23.503600 -n 1 -e 976.356261
N -t 23.504600 -n 0 -e 976.356261
N -t 23.504600 -n 1 -e 976.355260
s 23.518600000 _1_ MAC  --- 0 SYNC 9 [0.13 1 0] [energy 976.355260 ei 23.272 es 0.000 et 0.045 er 0.048] 
N -t 23.518600 -n 0 -e 976.339261
N -t 23.647800 -n 1 -e 976.211060
N -t 23.647800 -n 0 -e 976.212061
N -t 23.648800 -n 1 -e 976.210059
N -t 23.648800 -n 0 -e 976.211060
s 23.672800000 _0_ MAC  --- 0 SYNC 9 [0.12 0 1] [energy 976.211060 ei 23.413 es 0.000 et 0.048 er 0.048] 
N -t 23.672800 -n 1 -e 976.183059
N -t 23.792000 -n 0 -e 976.066860
N -t 23.792000 -n 1 -e 976.065859
N -t 23.793000 -n 0 -e 976.065859
N -t 23.793000 -n 1 -e 976.064858
N -t 23.936200 -n 0 -e 975.921659
N -t 23.936200 -n 1 -e 975.920658
N -t 23.937200 -n 0 -e 975.920658
N -t 23.937200 -n 1 -e 975.919657
N -t 24.080400 -n 0 -e 975.776458
N -t 24.080400 -n 1 -e 975.775457
N -t 24.081400 -n 0 -e 975.775457
N -t 24.081400 -n 1 -e 975.774456
N -t 24.224600 -n 0 -e 975.631257
N -t 24.224600 -n 1 -e 975.630256
N -t 24.225600 -n 0 -e 975.630256
N -t 24.225600 -n 1 -e 975.629255
N -t 24.368800 -n 0 -e 975.486056
N -t 24.368800 -n 1 -e 975.485055
N -t 24.369800 -n 0 -e 975.485055
N -t 24.369800 -n 1 -e 975.484054
N -t 24.513000 -n 0 -e 975.340855
N -t 24.513000 -n 1 -e 975.339854
N -t 24.514000 -n 0 -e 975.339854
N -t 24.514000 -n 1 -e 975.338853
N -t 24.657200 -n 0 -e 975.195654
N -t 24.657200 -n 1 -e 975.194653
N -t 24.658200 -n 0 -e 975.194653
N -t 24.658200 -n 1 -e 975.193652
N -t 24.801400 -n 0 -e 975.050453
N -t 24.801400 -n 1 -e 975.049452
N -t 24.802400 -n 0 -e 975.049452
N -t 24.802400 -n 1 -e 975.048451
N -t 24.945600 -n 0 -e 974.905252
N -t 24.945600 -n 1 -e 974.904251
N -t 24.946600 -n 0 -e 974.904251
N -t 24.946600 -n 1 -e 974.903250
s 24.966600000 _1_ MAC  --- 0 SYNC 9 [0.12 1 0] [energy 974.903250 ei 24.698 es 0.000 et 0.048 er 0.051] 
N -t 24.966600 -n 0 -e 974.881251
N -t 25.089800 -n 1 -e 974.759050
N -t 25.089800 -n 0 -e 974.760051
N -t 25.090800 -n 1 -e 974.758049
N -t 25.090800 -n 0 -e 974.759050
s 25.105800000 _0_ MAC  --- 0 SYNC 9 [0.13 0 1] [energy 974.759050 ei 24.839 es 0.000 et 0.051 er 0.051] 
N -t 25.105800 -n 1 -e 974.740049
N -t 25.234000 -n 0 -e 974.614850
N -t 25.234000 -n 1 -e 974.613849
N -t 25.235000 -n 0 -e 974.613849
N -t 25.235000 -n 1 -e 974.612848
N -t 25.378200 -n 0 -e 974.469649
N -t 25.378200 -n 1 -e 974.468648
N -t 25.379200 -n 0 -e 974.468648
N -t 25.379200 -n 1 -e 974.467647
N -t 25.522400 -n 0 -e 974.324448
N -t 25.522400 -n 1 -e 974.323447
N -t 25.523400 -n 0 -e 974.323447
N -t 25.523400 -n 1 -e 974.322446
N -t 25.666600 -n 0 -e 974.179247
N -t 25.666600 -n 1 -e 974.178246
N -t 25.667600 -n 0 -e 974.178246
N -t 25.667600 -n 1 -e 974.177245
N -t 25.810800 -n 0 -e 974.034046
N -t 25.810800 -n 1 -e 974.033045
N -t 25.811800 -n 0 -e 974.033045
N -t 25.811800 -n 1 -e 974.032044
N -t 25.955000 -n 0 -e 973.888845
N -t 25.955000 -n 1 -e 973.887844
N -t 25.956000 -n 0 -e 973.887844
N -t 25.956000 -n 1 -e 973.886843
N -t 26.099200 -n 0 -e 973.743644
N -t 26.099200 -n 1 -e 973.742643
N -t 26.100200 -n 0 -e 973.742643
N -t 26.100200 -n 1 -e 973.741642
N -t 26.243400 -n 0 -e 973.598443
N -t 26.243400 -n 1 -e 973.597442
N -t 26.244400 -n 0 -e 973.597442
N -t 26.244400 -n 1 -e 973.596441
N -t 26.387600 -n 0 -e 973.453242
N -t 26.387600 -n 1 -e 973.452241
N -t 26.388600 -n 0 -e 973.452241
N -t 26.388600 -n 1 -e 973.451240
s 26.424600000 _1_ MAC  --- 0 SYNC 9 [0.10 1 0] [energy 973.451240 ei 26.124 es 0.000 et 0.051 er 0.054] 
N -t 26.424600 -n 0 -e 973.413241
N -t 26.531800 -n 1 -e 973.307040
N -t 26.531800 -n 0 -e 973.308041
N -t 26.532800 -n 1 -e 973.306039
N -t 26.532800 -n 0 -e 973.307040
s 26.553800000 _0_ MAC  --- 0 SYNC 9 [0.12 0 1] [energy 973.307040 ei 26.265 es 0.000 et 0.054 er 0.054] 
N -t 26.553800 -n 1 -e 973.282039
N -t 26.676000 -n 0 -e 973.162840
N -t 26.676000 -n 1 -e 973.161839
N -t 26.677000 -n 0 -e 973.161839
N -t 26.677000 -n 1 -e 973.160838
N -t 26.820200 -n 0 -e 973.017639
N -t 26.820200 -n 1 -e 973.016638
N -t 26.821200 -n 0 -e 973.016638
N -t 26.821200 -n 1 -e 973.015637
N -t 26.964400 -n 0 -e 972.872438
N -t 26.964400 -n 1 -e 972.871437
N -t 26.965400 -n 0 -e 972.871437
N -t 26.965400 -n 1 -e 972.870436
N -t 27.108600 -n 0 -e 972.727237
N -t 27.108600 -n 1 -e 972.726236
N -t 27.109600 -n 0 -e 972.726236
N -t 27.109600 -n 1 -e 972.725235
N -t 27.252800 -n 0 -e 972.582036
N -t 27.252800 -n 1 -e 972.581035
N -t 27.253800 -n 0 -e 972.581035
N -t 27.253800 -n 1 -e 972.580034
N -t 27.397000 -n 0 -e 972.436835
N -t 27.397000 -n 1 -e 972.435834
N -t 27.398000 -n 0 -e 972.435834
N -t 27.398000 -n 1 -e 972.434833
N -t 27.541200 -n 0 -e 972.291634
N -t 27.541200 -n 1 -e 972.290633
N -t 27.542200 -n 0 -e 972.290633
N -t 27.542200 -n 1 -e 972.289632
N -t 27.685400 -n 0 -e 972.146433
N -t 27.685400 -n 1 -e 972.145432
N -t 27.686400 -n 0 -e 972.145432
N -t 27.686400 -n 1 -e 972.144431
N -t 27.829600 -n 0 -e 972.001232
N -t 27.829600 -n 1 -e 972.000231
N -t 27.830600 -n 0 -e 972.000231
N -t 27.830600 -n 1 -e 971.999230
s 27.850600000 _1_ MAC  --- 0 SYNC 9 [0.12 1 0] [energy 971.999230 ei 27.550 es 0.000 et 0.054 er 0.057] 
N -t 27.850600 -n 0 -e 971.977231
N -t 27.973800 -n 1 -e 971.855030
N -t 27.973800 -n 0 -e 971.856031
N -t 27.974800 -n 1 -e 971.854029
N -t 27.974800 -n 0 -e 971.855030
s 28.013800000 _0_ MAC  --- 0 SYNC 9 [0.10 0 1] [energy 971.855030 ei 27.691 es 0.000 et 0.057 er 0.057] 
N -t 28.013800 -n 1 -e 971.812029
N -t 28.118000 -n 0 -e 971.710830
N -t 28.118000 -n 1 -e 971.709829