s 0.118737855 _1_ AGT  --- 0 tcp 1 [0 1000000 0 0] [energy 10.000000 ei 0.000 es 0.000 et 0.000 er 0.000] ------- [1:0 -1:0 32 0] [0 0] 0 0
r 0.118737855 _1_ RTR  --- 0 tcp 1 [0 1000000 0 0] [energy 10.000000 ei 0.000 es 0.000 et 0.000 er 0.000] ------- [1:0 -1:0 32 0] [0 0] 0 0
s 0.118737855 _1_ RTR  --- 0 tcp 1 [0 1000000 0 0] [energy 10.000000 ei 0.000 es 0.000 et 0.000 er 0.000] ------- [1:0 -1:0 32 0] [0 0] 0 0
s 0.118762855 _1_ MAC  --- 0 tcp 21 [0 1000000 ffff0008 0] [energy 10.000000 ei 0.000 es 0.000 et 0.000 er 0.000] ------- [1:0 -1:0 32 0] [0 0] 0 0
N -t 0.118763 -n 7 -e 9.999998
N -t 0.118763 -n 4 -e 9.999998
N -t 0.118763 -n 5 -e 9.999998
N -t 0.118763 -n 8 -e 9.999998
N -t 0.118764 -n 6 -e 9.999998
N -t 0.118764 -n 10 -e 9.999998
N -t 0.118764 -n 0 -e 99.999958
N -t 0.118764 -n 2 -e 9.999998
N -t 0.118764 -n 9 -e 9.999998
N -t 0.118765 -n 3 -e 9.999998
r 0.118847071 _7_ MAC  --- 0 tcp 1 [0 1000000 ffff0008 0] [energy 9.999998 ei 0.000 es 0.000 et 0.000 er 0.000] ------- [1:0 -1:0 32 0] [0 0] 1 0
r 0.118847215 _4_ MAC  --- 0 tcp 1 [0 1000000 ffff0008 0] [energy 9.999998 ei 0.000 es 0.000 et 0.000 er 0.000] ------- [1:0 -1:0 32 0] [0 0] 1 0
r 0.118847381 _5_ MAC  --- 0 tcp 1 [0 1000000 ffff0008 0] [energy 9.999998 ei 0.000 es 0.000 et 0.000 er 0.000] ------- [1:0 -1:0 32 0] [0 0] 1 0
r 0.118847407 _8_ MAC  --- 0 tcp 1 [0 1000000 ffff0008 0] [energy 9.999998 ei 0.000 es 0.000 et 0.000 er 0.000] ------- [1:0 -1:0 32 0] [0 0] 1 0
r 0.118847619 _6_ MAC  --- 0 tcp 1 [0 1000000 ffff0008 0] [energy 9.999998 ei 0.000 es 0.000 et 0.000 er 0.000] ------- [1:0 -1:0 32 0] [0 0] 1 0
r 0.118847759 _10_ MAC  --- 0 tcp 1 [0 1000000 ffff0008 0] [energy 9.999998 ei 0.000 es 0.000 et 0.000 er 0.000] ------- [1:0 -1:0 32 0] [0 0] 1 0
r 0.118847927 _0_ MAC  --- 0 tcp 1 [0 1000000 ffff0008 0] [energy 99.999958 ei 0.000 es 0.000 et 0.000 er 0.000] ------- [1:0 -1:0 32 0] [0 0] 1 0
r 0.118847976 _2_ MAC  --- 0 tcp 1 [0 1000000 ffff0008 0] [energy 9.999998 ei 0.000 es 0.000 et 0.000 er 0.000] ------- [1:0 -1:0 32 0] [0 0] 1 0
r 0.118848010 _9_ MAC  --- 0 tcp 1 [0 1000000 ffff0008 0] [energy 9.999998 ei 0.000 es 0.000 et 0.000 er 0.000] ------- [1:0 -1:0 32 0] [0 0] 1 0
r 0.118848506 _3_ MAC  --- 0 tcp 1 [0 1000000 ffff0008 0] [energy 9.999998 ei 0.000 es 0.000 et 0.000 er 0.000] ------- [1:0 -1:0 32 0] [0 0] 1 0
r 0.118872071 _7_ RTR  --- 0 tcp 1 [0 1000000 ffff0008 0] [energy 9.999998 ei 0.000 es 0.000 et 0.000 er 0.000] ------- [1:0 -1:0 32 0] [0 0] 1 0
r 0.118872071 _7_ AGT  --- 0 tcp 1 [0 1000000 ffff0008 0] [energy 9.999998 ei 0.000 es 0.000 et 0.000 er 0.000] ------- [1:0 -1:0 32 0] [0 0] 1 0
r 0.118872215 _4_ RTR  --- 0 tcp 1 [0 1000000 ffff0008 0] [energy 9.999998 ei 0.000 es 0.000 et 0.000 er 0.000] ------- [1:0 -1:0 32 0] [0 0] 1 0
r 0.118872215 _4_ AGT  --- 0 tcp 1 [0 1000000 ffff0008 0] [energy 9.999998 ei 0.000 es 0.000 et 0.000 er 0.000] ------- [1:0 -1:0 32 0] [0 0] 1 0
r 0.118872381 _5_ RTR  --- 0 tcp 1 [0 1000000 ffff0008 0] [energy 9.999998 ei 0.000 es 0.000 et 0.000 er 0.000] ------- [1:0 -1:0 32 0] [0 0] 1 0
r 0.118872381 _5_ AGT  --- 0 tcp 1 [0 1000000 ffff0008 0] [energy 9.999998 ei 0.000 es 0.000 et 0.000 er 0.000] ------- [1:0 -1:0 32 0] [0 0] 1 0
r 0.118872407 _8_ RTR  --- 0 tcp 1 [0 1000000 ffff0008 0] [energy 9.999998 ei 0.000 es 0.000 et 0.000 er 0.000] ------- [1:0 -1:0 32 0] [0 0] 1 0
r 0.118872407 _8_ AGT  --- 0 tcp 1 [0 1000000 ffff0008 0] [energy 9.999998 ei 0.000 es 0.000 et 0.000 er 0.000] ------- [1:0 -1:0 32 0] [0 0] 1 0
r 0.118872619 _6_ RTR  --- 0 tcp 1 [0 1000000 ffff0008 0] [energy 9.999998 ei 0.000 es 0.000 et 0.000 er 0.000] ------- [1:0 -1:0 32 0] [0 0] 1 0
r 0.118872619 _6_ AGT  --- 0 tcp 1 [0 1000000 ffff0008 0] [energy 9.999998 ei 0.000 es 0.000 et 0.000 er 0.000] ------- [1:0 -1:0 32 0] [0 0] 1 0
r 0.118872759 _10_ RTR  --- 0 tcp 1 [0 1000000 ffff0008 0] [energy 9.999998 ei 0.000 es 0.000 et 0.000 er 0.000] ------- [1:0 -1:0 32 0] [0 0] 1 0
r 0.118872759 _10_ AGT  --- 0 tcp 1 [0 1000000 ffff0008 0] [energy 9.999998 ei 0.000 es 0.000 et 0.000 er 0.000] ------- [1:0 -1:0 32 0] [0 0] 1 0
r 0.118872927 _0_ RTR  --- 0 tcp 1 [0 1000000 ffff0008 0] [energy 99.999958 ei 0.000 es 0.000 et 0.000 er 0.000] ------- [1:0 -1:0 32 0] [0 0] 1 0
r 0.118872927 _0_ AGT  --- 0 tcp 1 [0 1000000 ffff0008 0] [energy 99.999958 ei 0.000 es 0.000 et 0.000 er 0.000] ------- [1:0 -1:0 32 0] [0 0] 1 0
r 0.118872976 _2_ RTR  --- 0 tcp 1 [0 1000000 ffff0008 0] [energy 9.999998 ei 0.000 es 0.000 et 0.000 er 0.000] ------- [1:0 -1:0 32 0] [0 0] 1 0
r 0.118872976 _2_ AGT  --- 0 tcp 1 [0 1000000 ffff0008 0] [energy 9.999998 ei 0.000 es 0.000 et 0.000 er 0.000] ------- [1:0 -1:0 32 0] [0 0] 1 0
r 0.118873010 _9_ RTR  --- 0 tcp 1 [0 1000000 ffff0008 0] [energy 9.999998 ei 0.000 es 0.000 et 0.000 er 0.000] ------- [1:0 -1:0 32 0] [0 0] 1 0
r 0.118873010 _9_ AGT  --- 0 tcp 1 [0 1000000 ffff0008 0] [energy 9.999998 ei 0.000 es 0.000 et 0.000 er 0.000] ------- [1:0 -1:0 32 0] [0 0] 1 0
r 0.118873506 _3_ RTR  --- 0 tcp 1 [0 1000000 ffff0008 0] [energy 9.999998 ei 0.000 es 0.000 et 0.000 er 0.000] ------- [1:0 -1:0 32 0] [0 0] 1 0
r 0.118873506 _3_ AGT  --- 0 tcp 1 [0 1000000 ffff0008 0] [energy 9.999998 ei 0.000 es 0.000 et 0.000 er 0.000] ------- [1:0 -1:0 32 0] [0 0] 1 0
s 0.269810698 _10_ AGT  --- 1 tcp 1 [0 a000000 0 0] [energy 9.997723 ei 0.000 es 0.000 et 0.000 er 0.000] ------- [10:0 -1:0 32 0] [0 0] 0 0
r 0.269810698 _10_ RTR  --- 1 tcp 1 [0 a000000 0 0] [energy 9.997723 ei 0.000 es 0.000 et 0.000 er 0.000] ------- [10:0 -1:0 32 0] [0 0] 0 0
s 0.269810698 _10_ RTR  --- 1 tcp 1 [0 a000000 0 0] [energy 9.997723 ei 0.000 es 0.000 et 0.000 er 0.000] ------- [10:0 -1:0 32 0] [0 0] 0 0
s 0.269835698 _10_ MAC  --- 1 tcp 21 [0 a000000 ffff0008 0] [energy 9.997723 ei 0.000 es 0.000 et 0.000 er 0.000] ------- [10:0 -1:0 32 0] [0 0] 0 0
N -t 0.269836 -n 6 -e 9.997721
N -t 0.269836 -n 0 -e 99.999916
N -t 0.269837 -n 7 -e 9.997721
N -t 0.269837 -n 3 -e 9.997721
N -t 0.269837 -n 1 -e 9.997677
N -t 0.269837 -n 5 -e 9.997721
N -t 0.269837 -n 8 -e 9.997721
N -t 0.269837 -n 9 -e 9.997721
N -t 0.269837 -n 4 -e 9.997721
N -t 0.269837 -n 2 -e 9.997721
r 0.269920120 _6_ MAC  --- 1 tcp 1 [0 a000000 ffff0008 0] [energy 9.997721 ei 0.000 es 0.000 et 0.000 er 0.000] ------- [10:0 -1:0 32 0] [0 0] 1 0
r 0.269920385 _0_ MAC  --- 1 tcp 1 [0 a000000 ffff0008 0] [energy 99.999916 ei 0.000 es 0.000 et 0.000 er 0.000] ------- [10:0 -1:0 32 0] [0 0] 1 0
r 0.269920513 _7_ MAC  --- 1 tcp 1 [0 a000000 ffff0008 0] [energy 9.997721 ei 0.000 es 0.000 et 0.000 er 0.000] ------- [10:0 -1:0 32 0] [0 0] 1 0
r 0.269920562 _3_ MAC  --- 1 tcp 1 [0 a000000 ffff0008 0] [energy 9.997721 ei 0.000 es 0.000 et 0.000 er 0.000] ------- [10:0 -1:0 32 0] [0 0] 1 0
r 0.269920639 _5_ MAC  --- 1 tcp 1 [0 a000000 ffff0008 0] [energy 9.997721 ei 0.000 es 0.000 et 0.000 er 0.000] ------- [10:0 -1:0 32 0] [0 0] 1 0
r 0.269920683 _8_ MAC  --- 1 tcp 1 [0 a000000 ffff0008 0] [energy 9.997721 ei 0.000 es 0.000 et 0.000 er 0.000] ------- [10:0 -1:0 32 0] [0 0] 1 0
r 0.269920689 _9_ MAC  --- 1 tcp 1 [0 a000000 ffff0008 0] [energy 9.997721 ei 0.000 es 0.000 et 0.000 er 0.000] ------- [10:0 -1:0 32 0] [0 0] 1 0
r 0.269920963 _4_ MAC  --- 1 tcp 1 [0 a000000 ffff0008 0] [energy 9.997721 ei 0.000 es 0.000 et 0.000 er 0.000] ------- [10:0 -1:0 32 0] [0 0] 1 0
r 0.269920990 _2_ MAC  --- 1 tcp 1 [0 a000000 ffff0008 0] [energy 9.997721 ei 0.000 es 0.000 et 0.000 er 0.000] ------- [10:0 -1:0 32 0] [0 0] 1 0
r 0.269945120 _6_ RTR  --- 1 tcp 1 [0 a000000 ffff0008 0] [energy 9.997721 ei 0.000 es 0.000 et 0.000 er 0.000] ------- [10:0 -1:0 32 0] [0 0] 1 0
r 0.269945120 _6_ AGT  --- 1 tcp 1 [0 a000000 ffff0008 0] [energy 9.997721 ei 0.000 es 0.000 et 0.000 er 0.000] ------- [10:0 -1:0 32 0] [0 0] 1 0
r 0.269945385 _0_ RTR  --- 1 tcp 1 [0 a000000 ffff0008 0] [energy 99.999916 ei 0.000 es 0.000 et 0.000 er 0.000] ------- [10:0 -1:0 32 0] [0 0] 1 0
r 0.269945385 _0_ AGT  --- 1 tcp 1 [0 a000000 ffff0008 0] [energy 99.999916 ei 0.000 es 0.000 et 0.000 er 0.000] ------- [10:0 -1:0 32 0] [0 0] 1 0
r 0.269945513 _7_ RTR  --- 1 tcp 1 [0 a000000 ffff0008 0] [energy 9.997721 ei 0.000 es 0.000 et 0.000 er 0.000] ------- [10:0 -1:0 32 0] [0 0] 1 0
r 0.269945513 _7_ AGT  --- 1 tcp 1 [0 a000000 ffff0008 0] [energy 9.997721 ei 0.000 es 0.000 et 0.000 er 0.000] ------- [10:0 -1:0 32 0] [0 0] 1 0
r 0.269945562 _3_ RTR  --- 1 tcp 1 [0 a000000 ffff0008 0] [energy 9.997721 ei 0.000 es 0.000 et 0.000 er 0.000] ------- [10:0 -1:0 32 0] [0 0] 1 0
r 0.269945562 _3_ AGT  --- 1 tcp 1 [0 a000000 ffff0008 0] [energy 9.997721 ei 0.000 es 0.000 et 0.000 er 0.000] ------- [10:0 -1:0 32 0] [0 0] 1 0
r 0.269945639 _5_ RTR  --- 1 tcp 1 [0 a000000 ffff0008 0] [energy 9.997721 ei 0.000 es 0.000 et 0.000 er 0.000] ------- [10:0 -1:0 32 0] [0 0] 1 0
r 0.269945639 _5_ AGT  --- 1 tcp 1 [0 a000000 ffff0008 0] [energy 9.997721 ei 0.000 es 0.000 et 0.000 er 0.000] ------- [10:0 -1:0 32 0] [0 0] 1 0
r 0.269945683 _8_ RTR  --- 1 tcp 1 [0 a000000 ffff0008 0] [energy 9.997721 ei 0.000 es 0.000 et 0.000 er 0.000] ------- [10:0 -1:0 32 0] [0 0] 1 0
r 0.269945683 _8_ AGT  --- 1 tcp 1 [0 a000000 ffff0008 0] [energy 9.997721 ei 0.000 es 0.000 et 0.000 er 0.000] ------- [10:0 -1:0 32 0] [0 0] 1 0
r 0.269945689 _9_ RTR  --- 1 tcp 1 [0 a000000 ffff0008 0] [energy 9.997721 ei 0.000 es 0.000 et 0.000 er 0.000] ------- [10:0 -1:0 32 0] [0 0] 1 0
r 0.269945689 _9_ AGT  --- 1 tcp 1 [0 a000000 ffff0008 0] [energy 9.997721 ei 0.000 es 0.000 et 0.000 er 0.000] ------- [10:0 -1:0 32 0] [0 0] 1 0
r 0.269945963 _4_ RTR  --- 1 tcp 1 [0 a000000 ffff0008 0] [energy 9.997721 ei 0.000 es 0.000 et 0.000 er 0.000] ------- [10:0 -1:0 32 0] [0 0] 1 0
r 0.269945963 _4_ AGT  --- 1 tcp 1 [0 a000000 ffff0008 0] [energy 9.997721 ei 0.000 es 0.000 et 0.000 er 0.000] ------- [10:0 -1:0 32 0] [0 0] 1 0
r 0.269945990 _2_ RTR  --- 1 tcp 1 [0 a000000 ffff0008 0] [energy 9.997721 ei 0.000 es 0.000 et 0.000 er 0.000] ------- [10:0 -1:0 32 0] [0 0] 1 0
r 0.269945990 _2_ AGT  --- 1 tcp 1 [0 a000000 ffff0008 0] [energy 9.997721 ei 0.000 es 0.000 et 0.000 er 0.000] ------- [10:0 -1:0 32 0] [0 0] 1 0
s 0.471023410 _8_ AGT  --- 2 tcp 1 [0 8000000 0 0] [energy 9.994471 ei 0.000 es 0.000 et 0.000 er 0.000] ------- [8:0 -1:0 32 0] [0 0] 0 0
r 0.471023410 _8_ RTR  --- 2 tcp 1 [0 8000000 0 0] [energy 9.994471 ei 0.000 es 0.000 et 0.000 er 0.000] ------- [8:0 -1:0 32 0] [0 0] 0 0
s 0.471023410 _8_ RTR  --- 2 tcp 1 [0 8000000 0 0] [energy 9.994471 ei 0.000 es 0.000 et 0.000 er 0.000] ------- [8:0 -1:0 32 0] [0 0] 0 0
s 0.471048410 _8_ MAC  --- 2 tcp 21 [0 8000000 ffff0008 0] [energy 9.994471 ei 0.000 es 0.000 et 0.000 er 0.000] ------- [8:0 -1:0 32 0] [0 0] 0 0
N -t 0.471048 -n 5 -e 9.994469
N -t 0.471049 -n 1 -e 9.994425
N -t 0.471049 -n 2 -e 9.994469
N -t 0.471049 -n 6 -e 9.994469
N -t 0.471049 -n 9 -e 9.994469
N -t 0.471049 -n 4 -e 9.994469
N -t 0.471049 -n 7 -e 9.994469
N -t 0.471049 -n 10 -e 9.994425
N -t 0.471050 -n 0 -e 99.999874
N -t 0.471050 -n 3 -e 9.994469
r 0.471132456 _5_ MAC  --- 2 tcp 1 [0 8000000 ffff0008 0] [energy 9.994469 ei 0.000 es 0.000 et 0.000 er 0.000] ------- [8:0 -1:0 32 0] [0 0] 1 0
r 0.471132981 _2_ MAC  --- 2 tcp 1 [0 8000000 ffff0008 0] [energy 9.994469 ei 0.000 es 0.000 et 0.000 er 0.000] ------- [8:0 -1:0 32 0] [0 0] 1 0
r 0.471133033 _6_ MAC  --- 2 tcp 1 [0 8000000 ffff0008 0] [energy 9.994469 ei 0.000 es 0.000 et 0.000 er 0.000] ------- [8:0 -1:0 32 0] [0 0] 1 0
r 0.471133108 _9_ MAC  --- 2 tcp 1 [0 8000000 ffff0008 0] [energy 9.994469 ei 0.000 es 0.000 et 0.000 er 0.000] ------- [8:0 -1:0 32 0] [0 0] 1 0
r 0.471133118 _4_ MAC  --- 2 tcp 1 [0 8000000 ffff0008 0] [energy 9.994469 ei 0.000 es 0.000 et 0.000 er 0.000] ------- [8:0 -1:0 32 0] [0 0] 1 0
r 0.471133142 _7_ MAC  --- 2 tcp 1 [0 8000000 ffff0008 0] [energy 9.994469 ei 0.000 es 0.000 et 0.000 er 0.000] ------- [8:0 -1:0 32 0] [0 0] 1 0
r 0.471133845 _0_ MAC  --- 2 tcp 1 [0 8000000 ffff0008 0] [energy 99.999874 ei 0.000 es 0.000 et 0.000 er 0.000] ------- [8:0 -1:0 32 0] [0 0] 1 0
r 0.471133874 _3_ MAC  --- 2 tcp 1 [0 8000000 ffff0008 0] [energy 9.994469 ei 0.000 es 0.000 et 0.000 er 0.000] ------- [8:0 -1:0 32 0] [0 0] 1 0
r 0.471157456 _5_ RTR  --- 2 tcp 1 [0 8000000 ffff0008 0] [energy 9.994469 ei 0.000 es 0.000 et 0.000 er 0.000] ------- [8:0 -1:0 32 0] [0 0] 1 0
r 0.471157456 _5_ AGT  --- 2 tcp 1 [0 8000000 ffff0008 0] [energy 9.994469 ei 0.000 es 0.000 et 0.000 er 0.000] ------- [8:0 -1:0 32 0] [0 0] 1 0
r 0.471157981 _2_ RTR  --- 2 tcp 1 [0 8000000 ffff0008 0] [energy 9.994469 ei 0.000 es 0.000 et 0.000 er 0.000] ------- [8:0 -1:0 32 0] [0 0] 1 0
r 0.471157981 _2_ AGT  --- 2 tcp 1 [0 8000000 ffff0008 0] [energy 9.994469 ei 0.000 es 0.000 et 0.000 er 0.000] ------- [8:0 -1:0 32 0] [0 0] 1 0
r 0.471158033 _6_ RTR  --- 2 tcp 1 [0 8000000 ffff0008 0] [energy 9.994469 ei 0.000 es 0.000 et 0.000 er 0.000] ------- [8:0 -1:0 32 0] [0 0] 1 0
r 0.471158033 _6_ AGT  --- 2 tcp 1 [0 8000000 ffff0008 0] [energy 9.994469 ei 0.000 es 0.000 et 0.000 er 0.000] ------- [8:0 -1:0 32 0] [0 0] 1 0
r 0.471158108 _9_ RTR  --- 2 tcp 1 [0 8000000 ffff0008 0] [energy 9.994469 ei 0.000 es 0.000 et 0.000 er 0.000] ------- [8:0 -1:0 32 0] [0 0] 1 0
r 0.471158108 _9_ AGT  --- 2 tcp 1 [0 8000000 ffff0008 0] [energy 9.994469 ei 0.000 es 0.000 et 0.000 er 0.000] ------- [8:0 -1:0 32 0] [0 0] 1 0
r 0.471158118 _4_ RTR  --- 2 tcp 1 [0 8000000 ffff0008 0] [energy 9.994469 ei 0.000 es 0.000 et 0.000 er 0.000] ------- [8:0 -1:0 32 0] [0 0] 1 0
r 0.471158118 _4_ AGT  --- 2 tcp 1 [0 8000000 ffff0008 0] [energy 9.994469 ei 0.000 es 0.000 et 0.000 er 0.000] ------- [8:0 -1:0 32 0] [0 0] 1 0
r 0.471158142 _7_ RTR  --- 2 tcp 1 [0 8000000 ffff0008 0] [energy 9.994469 ei 0.000 es 0.000 et 0.000 er 0.000] ------- [8:0 -1:0 32 0] [0 0] 1 0
r 0.471158142 _7_ AGT  --- 2 tcp 1 [0 8000000 ffff0008 0] [energy 9.994469 ei 0.000 es 0.000 et 0.000 er 0.000] ------- [8:0 -1:0 32 0] [0 0] 1 0
r 0.471158845 _0_ RTR  --- 2 tcp 1 [0 8000000 ffff0008 0] [energy 99.999874 ei 0.000 es 0.000 et 0.000 er 0.000] ------- [8:0 -1:0 32 0] [0 0] 1 0
r 0.471158845 _0_ AGT  --- 2 tcp 1 [0 8000000 ffff0008 0] [energy 99.999874 ei 0.000 es 0.000 et 0.000 er 0.000] ------- [8:0 -1:0 32 0] [0 0] 1 0
r 0.471158874 _3_ RTR  --- 2 tcp 1 [0 8000000 ffff0008 0] [energy 9.994469 ei 0.000 es 0.000 et 0.000 er 0.000] ------- [8:0 -1:0 32 0] [0 0] 1 0
r 0.471158874 _3_ AGT  --- 2 tcp 1 [0 8000000 ffff0008 0] [energy 9.994469 ei 0.000 es 0.000 et 0.000 er 0.000] ------- [8:0 -1:0 32 0] [0 0] 1 0
s 0.924264570 _2_ AGT  --- 3 tcp 1 [0 2000000 0 0] [energy 9.987481 ei 0.000 es 0.000 et 0.000 er 0.000] ------- [2:0 -1:0 32 0] [0 0] 0 0
r 0.924264570 _2_ RTR  --- 3 tcp 1 [0 2000000 0 0] [energy 9.987481 ei 0.000 es 0.000 et 0.000 er 0.000] ------- [2:0 -1:0 32 0] [0 0] 0 0
s 0.924264570 _2_ RTR  --- 3 tcp 1 [0 2000000 0 0] [energy 9.987481 ei 0.000 es 0.000 et 0.000 er 0.000] ------- [2:0 -1:0 32 0] [0 0] 0 0
s 0.924289570 _2_ MAC  --- 3 tcp 21 [0 2000000 ffff0008 0] [energy 9.987481 ei 0.000 es 0.000 et 0.000 er 0.000] ------- [2:0 -1:0 32 0] [0 0] 0 0
N -t 0.924290 -n 9 -e 9.987479
N -t 0.924290 -n 8 -e 9.987436
N -t 0.924290 -n 5 -e 9.987479
N -t 0.924290 -n 6 -e 9.987479
N -t 0.924291 -n 1 -e 9.987436
N -t 0.924291 -n 4 -e 9.987479
N -t 0.924291 -n 7 -e 9.987479
N -t 0.924291 -n 10 -e 9.987436
N -t 0.924291 -n 3 -e 9.987479
N -t 0.924291 -n 0 -e 99.999832
r 0.924374016 _9_ MAC  --- 3 tcp 1 [0 2000000 ffff0008 0] [energy 9.987479 ei 0.000 es 0.000 et 0.000 er 0.000] ------- [2:0 -1:0 32 0] [0 0] 1 0
r 0.924374165 _5_ MAC  --- 3 tcp 1 [0 2000000 ffff0008 0] [energy 9.987479 ei 0.000 es 0.000 et 0.000 er 0.000] ------- [2:0 -1:0 32 0] [0 0] 1 0
r 0.924374440 _6_ MAC  --- 3 tcp 1 [0 2000000 ffff0008 0] [energy 9.987479 ei 0.000 es 0.000 et 0.000 er 0.000] ------- [2:0 -1:0 32 0] [0 0] 1 0
r 0.924374819 _4_ MAC  --- 3 tcp 1 [0 2000000 ffff0008 0] [energy 9.987479 ei 0.000 es 0.000 et 0.000 er 0.000] ------- [2:0 -1:0 32 0] [0 0] 1 0
r 0.924374858 _7_ MAC  --- 3 tcp 1 [0 2000000 ffff0008 0] [energy 9.987479 ei 0.000 es 0.000 et 0.000 er 0.000] ------- [2:0 -1:0 32 0] [0 0] 1 0
r 0.924374992 _3_ MAC  --- 3 tcp 1 [0 2000000 ffff0008 0] [energy 9.987479 ei 0.000 es 0.000 et 0.000 er 0.000] ------- [2:0 -1:0 32 0] [0 0] 1 0
r 0.924375449 _0_ MAC  --- 3 tcp 1 [0 2000000 ffff0008 0] [energy 99.999832 ei 0.000 es 0.000 et 0.000 er 0.000] ------- [2:0 -1:0 32 0] [0 0] 1 0
r 0.924399016 _9_ RTR  --- 3 tcp 1 [0 2000000 ffff0008 0] [energy 9.987479 ei 0.000 es 0.000 et 0.000 er 0.000] ------- [2:0 -1:0 32 0] [0 0] 1 0
r 0.924399016 _9_ AGT  --- 3 tcp 1 [0 2000000 ffff0008 0] [energy 9.987479 ei 0.000 es 0.000 et 0.000 er 0.000] ------- [2:0 -1:0 32 0] [0 0] 1 0
r 0.924399165 _5_ RTR  --- 3 tcp 1 [0 2000000 ffff0008 0] [energy 9.987479 ei 0.000 es 0.000 et 0.000 er 0.000] ------- [2:0 -1:0 32 0] [0 0] 1 0
r 0.924399165 _5_ AGT  --- 3 tcp 1 [0 2000000 ffff0008 0] [energy 9.987479 ei 0.000 es 0.000 et 0.000 er 0.000] ------- [2:0 -1:0 32 0] [0 0] 1 0
r 0.924399440 _6_ RTR  --- 3 tcp 1 [0 2000000 ffff0008 0] [energy 9.987479 ei 0.000 es 0.000 et 0.000 er 0.000] ------- [2:0 -1:0 32 0] [0 0] 1 0
r 0.924399440 _6_ AGT  --- 3 tcp 1 [0 2000000 ffff0008 0] [energy 9.987479 ei 0.000 es 0.000 et 0.000 er 0.000] ------- [2:0 -1:0 32 0] [0 0] 1 0
r 0.924399819 _4_ RTR  --- 3 tcp 1 [0 2000000 ffff0008 0] [energy 9.987479 ei 0.000 es 0.000 et 0.000 er 0.000] ------- [2:0 -1:0 32 0] [0 0] 1 0
r 0.924399819 _4_ AGT  --- 3 tcp 1 [0 2000000 ffff0008 0] [energy 9.987479 ei 0.000 es 0.000 et 0.000 er 0.000] ------- [2:0 -1:0 32 0] [0 0] 1 0
r 0.924399858 _7_ RTR  --- 3 tcp 1 [0 2000000 ffff0008 0] [energy 9.987479 ei 0.000 es 0.000 et 0.000 er 0.000] ------- [2:0 -1:0 32 0] [0 0] 1 0
r 0.924399858 _7_ AGT  --- 3 tcp 1 [0 2000000 ffff0008 0] [energy 9.987479 ei 0.000 es 0.000 et 0.000 er 0.000] ------- [2:0 -1:0 32 0] [0 0] 1 0
r 0.924399992 _3_ RTR  --- 3 tcp 1 [0 2000000 ffff0008 0] [energy 9.987479 ei 0.000 es 0.000 et 0.000 er 0.000] ------- [2:0 -1:0 32 0] [0 0] 1 0
r 0.924399992 _3_ AGT  --- 3 tcp 1 [0 2000000 ffff0008 0] [energy 9.987479 ei 0.000 es 0.000 et 0.000 er 0.000] ------- [2:0 -1:0 32 0] [0 0] 1 0
r 0.924400449 _0_ RTR  --- 3 tcp 1 [0 2000000 ffff0008 0] [energy 99.999832 ei 0.000 es 0.000 et 0.000 er 0.000] ------- [2:0 -1:0 32 0] [0 0] 1 0
r 0.924400449 _0_ AGT  --- 3 tcp 1 [0 2000000 ffff0008 0] [energy 99.999832 ei 0.000 es 0.000 et 0.000 er 0.000] ------- [2:0 -1:0 32 0] [0 0] 1 0
s 2.251381099 _7_ AGT  --- 4 udp 7 [0 7000000 0 0] [energy 9.966192 ei 0.000 es 0.000 et 0.000 er 0.000] ------- [7:0 -1:0 32 0] 
r 2.251381099 _7_ RTR  --- 4 udp 7 [0 7000000 0 0] [energy 9.966192 ei 0.000 es 0.000 et 0.000 er 0.000] ------- [7:0 -1:0 32 0] 
s 2.251381099 _7_ RTR  --- 4 udp 7 [0 7000000 0 0] [energy 9.966192 ei 0.000 es 0.000 et 0.000 er 0.000] ------- [7:0 -1:0 32 0] 
s 2.251406099 _7_ MAC  --- 4 udp 27 [0 7000000 8 0] [energy 9.966192 ei 0.000 es 0.000 et 0.000 er 0.000] ------- [7:0 -1:0 32 0] 
s 2.778710777 _9_ AGT  --- 5 udp 9 [0 9000000 0 0] [energy 9.957579 ei 0.000 es 0.000 et 0.000 er 0.000] ------- [9:0 -1:0 32 0] 
r 2.778710777 _9_ RTR  --- 5 udp 9 [0 9000000 0 0] [energy 9.957579 ei 0.000 es 0.000 et 0.000 er 0.000] ------- [9:0 -1:0 32 0] 
s 2.778710777 _9_ RTR  --- 5 udp 9 [0 9000000 0 0] [energy 9.957579 ei 0.000 es 0.000 et 0.000 er 0.000] ------- [9:0 -1:0 32 0] 
s 2.778735777 _9_ MAC  --- 5 udp 29 [0 9000000 8 0] [energy 9.957579 ei 0.000 es 0.000 et 0.000 er 0.000] ------- [9:0 -1:0 32 0] 
s 2.798991066 _6_ AGT  --- 6 udp 6 [0 6000000 0 0] [energy 9.957254 ei 0.000 es 0.000 et 0.000 er 0.000] ------- [6:0 -1:0 32 0] 
r 2.798991066 _6_ RTR  --- 6 udp 6 [0 6000000 0 0] [energy 9.957254 ei 0.000 es 0.000 et 0.000 er 0.000] ------- [6:0 -1:0 32 0] 
s 2.798991066 _6_ RTR  --- 6 udp 6 [0 6000000 0 0] [energy 9.957254 ei 0.000 es 0.000 et 0.000 er 0.000] ------- [6:0 -1:0 32 0] 
s 2.799016066 _6_ MAC  --- 6 udp 26 [0 6000000 8 0] [energy 9.957254 ei 0.000 es 0.000 et 0.000 er 0.000] ------- [6:0 -1:0 32 0] 
s 2.859125314 _5_ AGT  --- 7 udp 5 [0 5000000 0 0] [energy 9.956279 ei 0.000 es 0.000 et 0.000 er 0.000] ------- [5:0 -1:0 32 0] 
r 2.859125314 _5_ RTR  --- 7 udp 5 [0 5000000 0 0] [energy 9.956279 ei 0.000 es 0.000 et 0.000 er 0.000] ------- [5:0 -1:0 32 0] 
s 2.859125314 _5_ RTR  --- 7 udp 5 [0 5000000 0 0] [energy 9.956279 ei 0.000 es 0.000 et 0.000 er 0.000] ------- [5:0 -1:0 32 0] 
s 2.859150314 _5_ MAC  --- 7 udp 25 [0 5000000 8 0] [energy 9.956279 ei 0.000 es 0.000 et 0.000 er 0.000] ------- [5:0 -1:0 32 0] 
s 2.957268355 _3_ AGT  --- 8 udp 3 [0 3000000 0 0] [energy 9.954654 ei 0.000 es 0.000 et 0.000 er 0.000] ------- [3:0 -1:0 32 0] 
r 2.957268355 _3_ RTR  --- 8 udp 3 [0 3000000 0 0] [energy 9.954654 ei 0.000 es 0.000 et 0.000 er 0.000] ------- [3:0 -1:0 32 0] 
s 2.957268355 _3_ RTR  --- 8 udp 3 [0 3000000 0 0] [energy 9.954654 ei 0.000 es 0.000 et 0.000 er 0.000] ------- [3:0 -1:0 32 0] 
s 2.957293355 _3_ MAC  --- 8 udp 23 [0 3000000 8 0] [energy 9.954654 ei 0.000 es 0.000 et 0.000 er 0.000] ------- [3:0 -1:0 32 0] 
s 10.158455937 _1_ AGT  --- 0 audio 9843688 [0 1000000 0 6e76] [energy 9.837611 ei 0.000 es 0.000 et 0.000 er 0.000] ------- [-2:9372512 0:9371680 0 25010848] 
r 10.158455937 _1_ RTR  --- 0 audio 9843688 [0 1000000 0 6e76] [energy 9.837611 ei 0.000 es 0.000 et 0.000 er 0.000] ------- [-2:9372512 0:9371680 0 25010848] 
f 10.158455937 _1_ RTR  --- 0 audio 9843688 [0 1000000 0 6e76] [energy 9.837611 ei 0.000 es 0.000 et 0.000 er 0.000] ------- [-2:9372512 0:9371680 0 25010848] 
s 10.158480937 _1_ MAC  --- 0 audio 9843708 [0 1000000 ffff0008 6e76] [energy 9.837611 ei 0.000 es 0.000 et 0.000 er 0.000] ------- [-2:9372512 0:9371680 0 25010848] 
N -t 10.158481 -n 1 -e 0 
N -t 10.158481 -n 4 -e 8.892658
N -t 10.158481 -n 8 -e 8.892615
N -t 10.158482 -n 10 -e 8.892615
N -t 10.158482 -n 0 -e 80.312416
N -t 10.158482 -n 2 -e 8.892615
s 10.303053677 _10_ AGT  --- 0 audio 9843688 [0 a000000 72656c65 0] [energy 8.890177 ei 0.000 es 0.000 et 0.000 er 0.945] ------- [0:0 0:8968452 0 25033984] 
r 10.303053677 _10_ RTR  --- 0 audio 9843688 [0 a000000 72656c65 0] [energy 8.890177 ei 0.000 es 0.000 et 0.000 er 0.945] ------- [0:0 0:8968452 0 25033984] 
f 10.303053677 _10_ RTR  --- 0 audio 9843688 [0 a000000 72656c65 0] [energy 8.890177 ei 0.000 es 0.000 et 0.000 er 0.945] ------- [0:0 0:8968452 0 25033984] 
s 10.508013513 _8_ AGT  --- 0 audio 9843688 [0 8000000 696e3100 5b01] [energy 8.886927 ei 0.000 es 0.000 et 0.000 er 0.945] ------- [-2:9372512 0:9371680 0 25062672] 
r 10.508013513 _8_ RTR  --- 0 audio 9843688 [0 8000000 696e3100 5b01] [energy 8.886927 ei 0.000 es 0.000 et 0.000 er 0.945] ------- [-2:9372512 0:9371680 0 25062672] 
f 10.508013513 _8_ RTR  --- 0 audio 9843688 [0 8000000 696e3100 5b01] [energy 8.886927 ei 0.000 es 0.000 et 0.000 er 0.945] ------- [-2:9372512 0:9371680 0 25062672] 
s 10.965977641 _2_ AGT  --- 0 audio 9843688 [0 2000000 2100 7400] [energy 8.879452 ei 0.000 es 0.000 et 0.000 er 0.945] ------- [0:20839657 0:81 0 25133504] 
r 10.965977641 _2_ RTR  --- 0 audio 9843688 [0 2000000 2100 7400] [energy 8.879452 ei 0.000 es 0.000 et 0.000 er 0.945] ------- [0:20839657 0:81 0 25133504] 
f 10.965977641 _2_ RTR  --- 0 audio 9843688 [0 2000000 2100 7400] [energy 8.879452 ei 0.000 es 0.000 et 0.000 er 0.945] ------- [0:20839657 0:81 0 25133504] 
s 11.120102812 _4_ AGT  --- 0 audio 9843688 [0 4000000 f0f8 0] [energy 8.877058 ei 0.000 es 0.000 et 0.000 er 0.945] ------- [0:80 0:209 0 25141776] 
r 11.120102812 _4_ RTR  --- 0 audio 9843688 [0 4000000 f0f8 0] [energy 8.877058 ei 0.000 es 0.000 et 0.000 er 0.945] ------- [0:80 0:209 0 25141776] 
f 11.120102812 _4_ RTR  --- 0 audio 9843688 [0 4000000 f0f8 0] [energy 8.877058 ei 0.000 es 0.000 et 0.000 er 0.945] ------- [0:80 0:209 0 25141776] 
s 20.385503101 _10_ AGT  --- 0 audio 9843688 [0 a000000 72656c65 0] [energy 8.726377 ei 0.000 es 0.000 et 0.000 er 0.945] ------- [0:0 0:8968452 0 25033984] 
r 20.385503101 _10_ RTR  --- 0 audio 9843688 [0 a000000 72656c65 0] [energy 8.726377 ei 0.000 es 0.000 et 0.000 er 0.945] ------- [0:0 0:8968452 0 25033984] 
f 20.385503101 _10_ RTR  --- 0 audio 9843688 [0 a000000 72656c65 0] [energy 8.726377 ei 0.000 es 0.000 et 0.000 er 0.945] ------- [0:0 0:8968452 0 25033984] 
s 20.585715437 _8_ AGT  --- 0 audio 9843688 [0 8000000 696e3100 5b01] [energy 8.723127 ei 0.000 es 0.000 et 0.000 er 0.945] ------- [-2:9372512 0:9371680 0 25062672] 
r 20.585715437 _8_ RTR  --- 0 audio 9843688 [0 8000000 696e3100 5b01] [energy 8.723127 ei 0.000 es 0.000 et 0.000 er 0.945] ------- [-2:9372512 0:9371680 0 25062672] 
f 20.585715437 _8_ RTR  --- 0 audio 9843688 [0 8000000 696e3100 5b01] [energy 8.723127 ei 0.000 es 0.000 et 0.000 er 0.945] ------- [-2:9372512 0:9371680 0 25062672] 
s 21.045954392 _2_ AGT  --- 0 audio 9843688 [0 2000000 2100 7400] [energy 8.715652 ei 0.000 es 0.000 et 0.000 er 0.945] ------- [0:20839657 0:81 0 25133504] 
r 21.045954392 _2_ RTR  --- 0 audio 9843688 [0 2000000 2100 7400] [energy 8.715652 ei 0.000 es 0.000 et 0.000 er 0.945] ------- [0:20839657 0:81 0 25133504] 
f 21.045954392 _2_ RTR  --- 0 audio 9843688 [0 2000000 2100 7400] [energy 8.715652 ei 0.000 es 0.000 et 0.000 er 0.945] ------- [0:20839657 0:81 0 25133504] 
s 21.199320539 _4_ AGT  --- 0 audio 9843688 [0 4000000 f0f8 0] [energy 8.713258 ei 0.000 es 0.000 et 0.000 er 0.945] ------- [0:80 0:209 0 25141776] 
r 21.199320539 _4_ RTR  --- 0 audio 9843688 [0 4000000 f0f8 0] [energy 8.713258 ei 0.000 es 0.000 et 0.000 er 0.945] ------- [0:80 0:209 0 25141776] 
f 21.199320539 _4_ RTR  --- 0 audio 9843688 [0 4000000 f0f8 0] [energy 8.713258 ei 0.000 es 0.000 et 0.000 er 0.945] ------- [0:80 0:209 0 25141776] 
s 30.468108144 _10_ AGT  --- 0 audio 9843688 [0 a000000 72656c65 0] [energy 8.562577 ei 0.000 es 0.000 et 0.000 er 0.945] ------- [0:0 0:8968452 0 25033984] 
r 30.468108144 _10_ RTR  --- 0 audio 9843688 [0 a000000 72656c65 0] [energy 8.562577 ei 0.000 es 0.000 et 0.000 er 0.945] ------- [0:0 0:8968452 0 25033984] 
f 30.468108144 _10_ RTR  --- 0 audio 9843688 [0 a000000 72656c65 0] [energy 8.562577 ei 0.000 es 0.000 et 0.000 er 0.945] ------- [0:0 0:8968452 0 25033984] 
s 30.668015454 _8_ AGT  --- 0 audio 9843688 [0 8000000 696e3100 5b01] [energy 8.559327 ei 0.000 es 0.000 et 0.000 er 0.945] ------- [-2:9372512 0:9371680 0 25062672] 
r 30.668015454 _8_ RTR  --- 0 audio 9843688 [0 8000000 696e3100 5b01] [energy 8.559327 ei 0.000 es 0.000 et 0.000 er 0.945] ------- [-2:9372512 0:9371680 0 25062672] 
f 30.668015454 _8_ RTR  --- 0 audio 9843688 [0 8000000 696e3100 5b01] [energy 8.559327 ei 0.000 es 0.000 et 0.000 er 0.945] ------- [-2:9372512 0:9371680 0 25062672] 
s 31.117611176 _2_ AGT  --- 0 audio 9843688 [0 2000000 2100 7400] [energy 8.552015 ei 0.000 es 0.000 et 0.000 er 0.945] ------- [0:20839657 0:81 0 25133504] 
r 31.117611176 _2_ RTR  --- 0 audio 9843688 [0 2000000 2100 7400] [energy 8.552015 ei 0.000 es 0.000 et 0.000 er 0.945] ------- [0:20839657 0:81 0 25133504] 
f 31.117611176 _2_ RTR  --- 0 audio 9843688 [0 2000000 2100 7400] [energy 8.552015 ei 0.000 es 0.000 et 0.000 er 0.945] ------- [0:20839657 0:81 0 25133504] 
s 31.275363148 _4_ AGT  --- 0 audio 9843688 [0 4000000 f0f8 0] [energy 8.549458 ei 0.000 es 0.000 et 0.000 er 0.945] ------- [0:80 0:209 0 25141776] 
r 31.275363148 _4_ RTR  --- 0 audio 9843688 [0 4000000 f0f8 0] [energy 8.549458 ei 0.000 es 0.000 et 0.000 er 0.945] ------- [0:80 0:209 0 25141776] 
f 31.275363148 _4_ RTR  --- 0 audio 9843688 [0 4000000 f0f8 0] [energy 8.549458 ei 0.000 es 0.000 et 0.000 er 0.945] ------- [0:80 0:209 0 25141776] 
s 40.544297779 _10_ AGT  --- 0 audio 9843688 [0 a000000 72656c65 0] [energy 8.398777 ei 0.000 es 0.000 et 0.000 er 0.945] ------- [0:0 0:8968452 0 25033984] 
r 40.544297779 _10_ RTR  --- 0 audio 9843688 [0 a000000 72656c65 0] [energy 8.398777 ei 0.000 es 0.000 et 0.000 er 0.945] ------- [0:0 0:8968452 0 25033984] 
f 40.544297779 _10_ RTR  --- 0 audio 9843688 [0 a000000 72656c65 0] [energy 8.398777 ei 0.000 es 0.000 et 0.000 er 0.945] ------- [0:0 0:8968452 0 25033984] 
s 40.749455267 _8_ AGT  --- 0 audio 9843688 [0 8000000 696e3100 5b01] [energy 8.395527 ei 0.000 es 0.000 et 0.000 er 0.945] ------- [-2:9372512 0:9371680 0 25062672] 
r 40.749455267 _8_ RTR  --- 0 audio 9843688 [0 8000000 696e3100 5b01] [energy 8.395527 ei 0.000 es 0.000 et 0.000 er 0.945] ------- [-2:9372512 0:9371680 0 25062672] 
f 40.749455267 _8_ RTR  --- 0 audio 9843688 [0 8000000 696e3100 5b01] [energy 8.395527 ei 0.000 es 0.000 et 0.000 er 0.945] ------- [-2:9372512 0:9371680 0 25062672] 
s 41.040523326 _4_ AGT  --- 0 audio 9843688 [0 4000000 f0f8 0] [energy 8.390858 ei 0.000 es 0.000 et 0.000 er 0.945] ------- [0:80 0:209 0 25141776] 
r 41.040523326 _4_ RTR  --- 0 audio 9843688 [0 4000000 f0f8 0] [energy 8.390858 ei 0.000 es 0.000 et 0.000 er 0.945] ------- [0:80 0:209 0 25141776] 
f 41.040523326 _4_ RTR  --- 0 audio 9843688 [0 4000000 f0f8 0] [energy 8.390858 ei 0.000 es 0.000 et 0.000 er 0.945] ------- [0:80 0:209 0 25141776] 
s 41.202720889 _2_ AGT  --- 0 audio 9843688 [0 2000000 2100 7400] [energy 8.388052 ei 0.000 es 0.000 et 0.000 er 0.945] ------- [0:20839657 0:81 0 25133504] 
r 41.202720889 _2_ RTR  --- 0 audio 9843688 [0 2000000 2100 7400] [energy 8.388052 ei 0.000 es 0.000 et 0.000 er 0.945] ------- [0:20839657 0:81 0 25133504] 
f 41.202720889 _2_ RTR  --- 0 audio 9843688 [0 2000000 2100 7400] [energy 8.388052 ei 0.000 es 0.000 et 0.000 er 0.945] ------- [0:20839657 0:81 0 25133504] 
r 49.533313297 _4_ MAC  --- 0 audio 9843688 [0 1000000 ffff0008 6e76] [energy 8.252733 ei 0.000 es 0.000 et 0.000 er 0.945] ------- [-2:9372512 0:9371680 0 25010848] 
r 49.533314008 _0_ MAC  --- 0 audio 9843688 [0 1000000 ffff0008 6e76] [energy 80.312416 ei 0.000 es 0.000 et 0.000 er 19.688] ------- [-2:9372512 0:9371680 0 25010848] 
s 50.316103554 _10_ AGT  --- 0 audio 9843688 [0 a000000 72656c65 0] [energy 8.240015 ei 0.000 es 0.000 et 0.000 er 0.945] ------- [0:0 0:8968452 0 25033984] 