s 0.001180836 _5_ AGT  --- 0 tcp 1 [0 5000000 0 0] [energy 100.000000 ei 0.000 es 0.000 et 0.000 er 0.000] ------- [5:0 -1:0 32 0] [0 0] 0 0
r 0.001180836 _5_ RTR  --- 0 tcp 1 [0 5000000 0 0] [energy 100.000000 ei 0.000 es 0.000 et 0.000 er 0.000] ------- [5:0 -1:0 32 0] [0 0] 0 0
s 0.001180836 _5_ RTR  --- 0 tcp 1 [0 5000000 0 0] [energy 100.000000 ei 0.000 es 0.000 et 0.000 er 0.000] ------- [5:0 -1:0 32 0] [0 0] 0 0
s 0.001205836 _5_ MAC  --- 0 tcp 21 [0 5000000 ffff0008 0] [energy 100.000000 ei 0.000 es 0.000 et 0.000 er 0.000] ------- [5:0 -1:0 32 0] [0 0] 0 0
N -t 0.001206 -n 6 -e 99.999998
N -t 0.001207 -n 7 -e 99.999998
N -t 0.001207 -n 3 -e 99.999998
N -t 0.001207 -n 2 -e 99.999998
N -t 0.001207 -n 10 -e 99.999998
N -t 0.001207 -n 1 -e 99.999998
N -t 0.001207 -n 4 -e 99.999998
N -t 0.001207 -n 9 -e 99.999998
N -t 0.001207 -n 0 -e 99.999958
N -t 0.001207 -n 8 -e 99.999998
r 0.001290307 _6_ MAC  --- 0 tcp 1 [0 5000000 ffff0008 0] [energy 99.999998 ei 0.000 es 0.000 et 0.000 er 0.000] ------- [5:0 -1:0 32 0] [0 0] 1 0
r 0.001290666 _7_ MAC  --- 0 tcp 1 [0 5000000 ffff0008 0] [energy 99.999998 ei 0.000 es 0.000 et 0.000 er 0.000] ------- [5:0 -1:0 32 0] [0 0] 1 0
r 0.001290671 _3_ MAC  --- 0 tcp 1 [0 5000000 ffff0008 0] [energy 99.999998 ei 0.000 es 0.000 et 0.000 er 0.000] ------- [5:0 -1:0 32 0] [0 0] 1 0
r 0.001290988 _2_ MAC  --- 0 tcp 1 [0 5000000 ffff0008 0] [energy 99.999998 ei 0.000 es 0.000 et 0.000 er 0.000] ------- [5:0 -1:0 32 0] [0 0] 1 0
r 0.001290993 _10_ MAC  --- 0 tcp 1 [0 5000000 ffff0008 0] [energy 99.999998 ei 0.000 es 0.000 et 0.000 er 0.000] ------- [5:0 -1:0 32 0] [0 0] 1 0
r 0.001291007 _1_ MAC  --- 0 tcp 1 [0 5000000 ffff0008 0] [energy 99.999998 ei 0.000 es 0.000 et 0.000 er 0.000] ------- [5:0 -1:0 32 0] [0 0] 1 0
r 0.001291086 _4_ MAC  --- 0 tcp 1 [0 5000000 ffff0008 0] [energy 99.999998 ei 0.000 es 0.000 et 0.000 er 0.000] ------- [5:0 -1:0 32 0] [0 0] 1 0
r 0.001291086 _9_ MAC  --- 0 tcp 1 [0 5000000 ffff0008 0] [energy 99.999998 ei 0.000 es 0.000 et 0.000 er 0.000] ------- [5:0 -1:0 32 0] [0 0] 1 0
r 0.001291322 _0_ MAC  --- 0 tcp 1 [0 5000000 ffff0008 0] [energy 99.999958 ei 0.000 es 0.000 et 0.000 er 0.000] ------- [5:0 -1:0 32 0] [0 0] 1 0
r 0.001291365 _8_ MAC  --- 0 tcp 1 [0 5000000 ffff0008 0] [energy 99.999998 ei 0.000 es 0.000 et 0.000 er 0.000] ------- [5:0 -1:0 32 0] [0 0] 1 0
r 0.001315307 _6_ RTR  --- 0 tcp 1 [0 5000000 ffff0008 0] [energy 99.999998 ei 0.000 es 0.000 et 0.000 er 0.000] ------- [5:0 -1:0 32 0] [0 0] 1 0
r 0.001315307 _6_ AGT  --- 0 tcp 1 [0 5000000 ffff0008 0] [energy 99.999998 ei 0.000 es 0.000 et 0.000 er 0.000] ------- [5:0 -1:0 32 0] [0 0] 1 0
r 0.001315666 _7_ RTR  --- 0 tcp 1 [0 5000000 ffff0008 0] [energy 99.999998 ei 0.000 es 0.000 et 0.000 er 0.000] ------- [5:0 -1:0 32 0] [0 0] 1 0
r 0.001315666 _7_ AGT  --- 0 tcp 1 [0 5000000 ffff0008 0] [energy 99.999998 ei 0.000 es 0.000 et 0.000 er 0.000] ------- [5:0 -1:0 32 0] [0 0] 1 0
r 0.001315671 _3_ RTR  --- 0 tcp 1 [0 5000000 ffff0008 0] [energy 99.999998 ei 0.000 es 0.000 et 0.000 er 0.000] ------- [5:0 -1:0 32 0] [0 0] 1 0
r 0.001315671 _3_ AGT  --- 0 tcp 1 [0 5000000 ffff0008 0] [energy 99.999998 ei 0.000 es 0.000 et 0.000 er 0.000] ------- [5:0 -1:0 32 0] [0 0] 1 0
r 0.001315988 _2_ RTR  --- 0 tcp 1 [0 5000000 ffff0008 0] [energy 99.999998 ei 0.000 es 0.000 et 0.000 er 0.000] ------- [5:0 -1:0 32 0] [0 0] 1 0
r 0.001315988 _2_ AGT  --- 0 tcp 1 [0 5000000 ffff0008 0] [energy 99.999998 ei 0.000 es 0.000 et 0.000 er 0.000] ------- [5:0 -1:0 32 0] [0 0] 1 0
r 0.001315993 _10_ RTR  --- 0 tcp 1 [0 5000000 ffff0008 0] [energy 99.999998 ei 0.000 es 0.000 et 0.000 er 0.000] ------- [5:0 -1:0 32 0] [0 0] 1 0
r 0.001315993 _10_ AGT  --- 0 tcp 1 [0 5000000 ffff0008 0] [energy 99.999998 ei 0.000 es 0.000 et 0.000 er 0.000] ------- [5:0 -1:0 32 0] [0 0] 1 0
r 0.001316007 _1_ RTR  --- 0 tcp 1 [0 5000000 ffff0008 0] [energy 99.999998 ei 0.000 es 0.000 et 0.000 er 0.000] ------- [5:0 -1:0 32 0] [0 0] 1 0
r 0.001316007 _1_ AGT  --- 0 tcp 1 [0 5000000 ffff0008 0] [energy 99.999998 ei 0.000 es 0.000 et 0.000 er 0.000] ------- [5:0 -1:0 32 0] [0 0] 1 0
r 0.001316086 _4_ RTR  --- 0 tcp 1 [0 5000000 ffff0008 0] [energy 99.999998 ei 0.000 es 0.000 et 0.000 er 0.000] ------- [5:0 -1:0 32 0] [0 0] 1 0
r 0.001316086 _4_ AGT  --- 0 tcp 1 [0 5000000 ffff0008 0] [energy 99.999998 ei 0.000 es 0.000 et 0.000 er 0.000] ------- [5:0 -1:0 32 0] [0 0] 1 0
r 0.001316086 _9_ RTR  --- 0 tcp 1 [0 5000000 ffff0008 0] [energy 99.999998 ei 0.000 es 0.000 et 0.000 er 0.000] ------- [5:0 -1:0 32 0] [0 0] 1 0
r 0.001316086 _9_ AGT  --- 0 tcp 1 [0 5000000 ffff0008 0] [energy 99.999998 ei 0.000 es 0.000 et 0.000 er 0.000] ------- [5:0 -1:0 32 0] [0 0] 1 0
r 0.001316322 _0_ RTR  --- 0 tcp 1 [0 5000000 ffff0008 0] [energy 99.999958 ei 0.000 es 0.000 et 0.000 er 0.000] ------- [5:0 -1:0 32 0] [0 0] 1 0
r 0.001316322 _0_ AGT  --- 0 tcp 1 [0 5000000 ffff0008 0] [energy 99.999958 ei 0.000 es 0.000 et 0.000 er 0.000] ------- [5:0 -1:0 32 0] [0 0] 1 0
r 0.001316365 _8_ RTR  --- 0 tcp 1 [0 5000000 ffff0008 0] [energy 99.999998 ei 0.000 es 0.000 et 0.000 er 0.000] ------- [5:0 -1:0 32 0] [0 0] 1 0
r 0.001316365 _8_ AGT  --- 0 tcp 1 [0 5000000 ffff0008 0] [energy 99.999998 ei 0.000 es 0.000 et 0.000 er 0.000] ------- [5:0 -1:0 32 0] [0 0] 1 0
s 0.219495585 _4_ AGT  --- 1 tcp 1 [0 4000000 0 0] [energy 99.996748 ei 0.000 es 0.000 et 0.000 er 0.000] ------- [4:0 -1:0 32 0] [0 0] 0 0
r 0.219495585 _4_ RTR  --- 1 tcp 1 [0 4000000 0 0] [energy 99.996748 ei 0.000 es 0.000 et 0.000 er 0.000] ------- [4:0 -1:0 32 0] [0 0] 0 0
s 0.219495585 _4_ RTR  --- 1 tcp 1 [0 4000000 0 0] [energy 99.996748 ei 0.000 es 0.000 et 0.000 er 0.000] ------- [4:0 -1:0 32 0] [0 0] 0 0
s 0.219520585 _4_ MAC  --- 1 tcp 21 [0 4000000 ffff0008 0] [energy 99.996748 ei 0.000 es 0.000 et 0.000 er 0.000] ------- [4:0 -1:0 32 0] [0 0] 0 0
N -t 0.219521 -n 2 -e 99.996746
N -t 0.219521 -n 1 -e 99.996746
N -t 0.219521 -n 3 -e 99.996746
N -t 0.219521 -n 7 -e 99.996746
N -t 0.219521 -n 9 -e 99.996746
N -t 0.219522 -n 5 -e 99.996702
N -t 0.219522 -n 10 -e 99.996746
N -t 0.219522 -n 8 -e 99.996746
N -t 0.219522 -n 6 -e 99.996746
N -t 0.219522 -n 0 -e 99.999916
r 0.219604746 _2_ MAC  --- 1 tcp 1 [0 4000000 ffff0008 0] [energy 99.996746 ei 0.000 es 0.000 et 0.000 er 0.000] ------- [4:0 -1:0 32 0] [0 0] 1 0
r 0.219604755 _1_ MAC  --- 1 tcp 1 [0 4000000 ffff0008 0] [energy 99.996746 ei 0.000 es 0.000 et 0.000 er 0.000] ------- [4:0 -1:0 32 0] [0 0] 1 0
r 0.219605002 _3_ MAC  --- 1 tcp 1 [0 4000000 ffff0008 0] [energy 99.996746 ei 0.000 es 0.000 et 0.000 er 0.000] ------- [4:0 -1:0 32 0] [0 0] 1 0
r 0.219605326 _7_ MAC  --- 1 tcp 1 [0 4000000 ffff0008 0] [energy 99.996746 ei 0.000 es 0.000 et 0.000 er 0.000] ------- [4:0 -1:0 32 0] [0 0] 1 0
r 0.219605358 _9_ MAC  --- 1 tcp 1 [0 4000000 ffff0008 0] [energy 99.996746 ei 0.000 es 0.000 et 0.000 er 0.000] ------- [4:0 -1:0 32 0] [0 0] 1 0
r 0.219605979 _10_ MAC  --- 1 tcp 1 [0 4000000 ffff0008 0] [energy 99.996746 ei 0.000 es 0.000 et 0.000 er 0.000] ------- [4:0 -1:0 32 0] [0 0] 1 0
r 0.219606123 _8_ MAC  --- 1 tcp 1 [0 4000000 ffff0008 0] [energy 99.996746 ei 0.000 es 0.000 et 0.000 er 0.000] ------- [4:0 -1:0 32 0] [0 0] 1 0
r 0.219606184 _6_ MAC  --- 1 tcp 1 [0 4000000 ffff0008 0] [energy 99.996746 ei 0.000 es 0.000 et 0.000 er 0.000] ------- [4:0 -1:0 32 0] [0 0] 1 0
r 0.219606187 _0_ MAC  --- 1 tcp 1 [0 4000000 ffff0008 0] [energy 99.999916 ei 0.000 es 0.000 et 0.000 er 0.000] ------- [4:0 -1:0 32 0] [0 0] 1 0
r 0.219629746 _2_ RTR  --- 1 tcp 1 [0 4000000 ffff0008 0] [energy 99.996746 ei 0.000 es 0.000 et 0.000 er 0.000] ------- [4:0 -1:0 32 0] [0 0] 1 0
r 0.219629746 _2_ AGT  --- 1 tcp 1 [0 4000000 ffff0008 0] [energy 99.996746 ei 0.000 es 0.000 et 0.000 er 0.000] ------- [4:0 -1:0 32 0] [0 0] 1 0
r 0.219629755 _1_ RTR  --- 1 tcp 1 [0 4000000 ffff0008 0] [energy 99.996746 ei 0.000 es 0.000 et 0.000 er 0.000] ------- [4:0 -1:0 32 0] [0 0] 1 0
r 0.219629755 _1_ AGT  --- 1 tcp 1 [0 4000000 ffff0008 0] [energy 99.996746 ei 0.000 es 0.000 et 0.000 er 0.000] ------- [4:0 -1:0 32 0] [0 0] 1 0
r 0.219630002 _3_ RTR  --- 1 tcp 1 [0 4000000 ffff0008 0] [energy 99.996746 ei 0.000 es 0.000 et 0.000 er 0.000] ------- [4:0 -1:0 32 0] [0 0] 1 0
r 0.219630002 _3_ AGT  --- 1 tcp 1 [0 4000000 ffff0008 0] [energy 99.996746 ei 0.000 es 0.000 et 0.000 er 0.000] ------- [4:0 -1:0 32 0] [0 0] 1 0
r 0.219630326 _7_ RTR  --- 1 tcp 1 [0 4000000 ffff0008 0] [energy 99.996746 ei 0.000 es 0.000 et 0.000 er 0.000] ------- [4:0 -1:0 32 0] [0 0] 1 0
r 0.219630326 _7_ AGT  --- 1 tcp 1 [0 4000000 ffff0008 0] [energy 99.996746 ei 0.000 es 0.000 et 0.000 er 0.000] ------- [4:0 -1:0 32 0] [0 0] 1 0
r 0.219630358 _9_ RTR  --- 1 tcp 1 [0 4000000 ffff0008 0] [energy 99.996746 ei 0.000 es 0.000 et 0.000 er 0.000] ------- [4:0 -1:0 32 0] [0 0] 1 0
r 0.219630358 _9_ AGT  --- 1 tcp 1 [0 4000000 ffff0008 0] [energy 99.996746 ei 0.000 es 0.000 et 0.000 er 0.000] ------- [4:0 -1:0 32 0] [0 0] 1 0
r 0.219630979 _10_ RTR  --- 1 tcp 1 [0 4000000 ffff0008 0] [energy 99.996746 ei 0.000 es 0.000 et 0.000 er 0.000] ------- [4:0 -1:0 32 0] [0 0] 1 0
r 0.219630979 _10_ AGT  --- 1 tcp 1 [0 4000000 ffff0008 0] [energy 99.996746 ei 0.000 es 0.000 et 0.000 er 0.000] ------- [4:0 -1:0 32 0] [0 0] 1 0
r 0.219631123 _8_ RTR  --- 1 tcp 1 [0 4000000 ffff0008 0] [energy 99.996746 ei 0.000 es 0.000 et 0.000 er 0.000] ------- [4:0 -1:0 32 0] [0 0] 1 0
r 0.219631123 _8_ AGT  --- 1 tcp 1 [0 4000000 ffff0008 0] [energy 99.996746 ei 0.000 es 0.000 et 0.000 er 0.000] ------- [4:0 -1:0 32 0] [0 0] 1 0
r 0.219631184 _6_ RTR  --- 1 tcp 1 [0 4000000 ffff0008 0] [energy 99.996746 ei 0.000 es 0.000 et 0.000 er 0.000] ------- [4:0 -1:0 32 0] [0 0] 1 0
r 0.219631184 _6_ AGT  --- 1 tcp 1 [0 4000000 ffff0008 0] [energy 99.996746 ei 0.000 es 0.000 et 0.000 er 0.000] ------- [4:0 -1:0 32 0] [0 0] 1 0
r 0.219631187 _0_ RTR  --- 1 tcp 1 [0 4000000 ffff0008 0] [energy 99.999916 ei 0.000 es 0.000 et 0.000 er 0.000] ------- [4:0 -1:0 32 0] [0 0] 1 0
r 0.219631187 _0_ AGT  --- 1 tcp 1 [0 4000000 ffff0008 0] [energy 99.999916 ei 0.000 es 0.000 et 0.000 er 0.000] ------- [4:0 -1:0 32 0] [0 0] 1 0
s 0.326532447 _1_ AGT  --- 2 tcp 1 [0 1000000 0 0] [energy 99.995121 ei 0.000 es 0.000 et 0.000 er 0.000] ------- [1:0 -1:0 32 0] [0 0] 0 0
r 0.326532447 _1_ RTR  --- 2 tcp 1 [0 1000000 0 0] [energy 99.995121 ei 0.000 es 0.000 et 0.000 er 0.000] ------- [1:0 -1:0 32 0] [0 0] 0 0
s 0.326532447 _1_ RTR  --- 2 tcp 1 [0 1000000 0 0] [energy 99.995121 ei 0.000 es 0.000 et 0.000 er 0.000] ------- [1:0 -1:0 32 0] [0 0] 0 0
s 0.326557447 _1_ MAC  --- 2 tcp 21 [0 1000000 ffff0008 0] [energy 99.995121 ei 0.000 es 0.000 et 0.000 er 0.000] ------- [1:0 -1:0 32 0] [0 0] 0 0
N -t 0.326558 -n 4 -e 99.995075
N -t 0.326558 -n 2 -e 99.995119
N -t 0.326558 -n 3 -e 99.995119
N -t 0.326558 -n 7 -e 99.995119
N -t 0.326558 -n 9 -e 99.995119
N -t 0.326559 -n 5 -e 99.995075
N -t 0.326559 -n 10 -e 99.995119
N -t 0.326559 -n 6 -e 99.995119
N -t 0.326559 -n 8 -e 99.995119
N -t 0.326559 -n 0 -e 99.999874
r 0.326641713 _2_ MAC  --- 2 tcp 1 [0 1000000 ffff0008 0] [energy 99.995119 ei 0.000 es 0.000 et 0.000 er 0.000] ------- [1:0 -1:0 32 0] [0 0] 1 0
r 0.326641791 _3_ MAC  --- 2 tcp 1 [0 1000000 ffff0008 0] [energy 99.995119 ei 0.000 es 0.000 et 0.000 er 0.000] ------- [1:0 -1:0 32 0] [0 0] 1 0
r 0.326642030 _7_ MAC  --- 2 tcp 1 [0 1000000 ffff0008 0] [energy 99.995119 ei 0.000 es 0.000 et 0.000 er 0.000] ------- [1:0 -1:0 32 0] [0 0] 1 0
r 0.326642338 _9_ MAC  --- 2 tcp 1 [0 1000000 ffff0008 0] [energy 99.995119 ei 0.000 es 0.000 et 0.000 er 0.000] ------- [1:0 -1:0 32 0] [0 0] 1 0
r 0.326642907 _10_ MAC  --- 2 tcp 1 [0 1000000 ffff0008 0] [energy 99.995119 ei 0.000 es 0.000 et 0.000 er 0.000] ------- [1:0 -1:0 32 0] [0 0] 1 0
r 0.326643000 _6_ MAC  --- 2 tcp 1 [0 1000000 ffff0008 0] [energy 99.995119 ei 0.000 es 0.000 et 0.000 er 0.000] ------- [1:0 -1:0 32 0] [0 0] 1 0
r 0.326643085 _8_ MAC  --- 2 tcp 1 [0 1000000 ffff0008 0] [energy 99.995119 ei 0.000 es 0.000 et 0.000 er 0.000] ------- [1:0 -1:0 32 0] [0 0] 1 0
r 0.326643139 _0_ MAC  --- 2 tcp 1 [0 1000000 ffff0008 0] [energy 99.999874 ei 0.000 es 0.000 et 0.000 er 0.000] ------- [1:0 -1:0 32 0] [0 0] 1 0
r 0.326666713 _2_ RTR  --- 2 tcp 1 [0 1000000 ffff0008 0] [energy 99.995119 ei 0.000 es 0.000 et 0.000 er 0.000] ------- [1:0 -1:0 32 0] [0 0] 1 0
r 0.326666713 _2_ AGT  --- 2 tcp 1 [0 1000000 ffff0008 0] [energy 99.995119 ei 0.000 es 0.000 et 0.000 er 0.000] ------- [1:0 -1:0 32 0] [0 0] 1 0
r 0.326666791 _3_ RTR  --- 2 tcp 1 [0 1000000 ffff0008 0] [energy 99.995119 ei 0.000 es 0.000 et 0.000 er 0.000] ------- [1:0 -1:0 32 0] [0 0] 1 0
r 0.326666791 _3_ AGT  --- 2 tcp 1 [0 1000000 ffff0008 0] [energy 99.995119 ei 0.000 es 0.000 et 0.000 er 0.000] ------- [1:0 -1:0 32 0] [0 0] 1 0
r 0.326667030 _7_ RTR  --- 2 tcp 1 [0 1000000 ffff0008 0] [energy 99.995119 ei 0.000 es 0.000 et 0.000 er 0.000] ------- [1:0 -1:0 32 0] [0 0] 1 0
r 0.326667030 _7_ AGT  --- 2 tcp 1 [0 1000000 ffff0008 0] [energy 99.995119 ei 0.000 es 0.000 et 0.000 er 0.000] ------- [1:0 -1:0 32 0] [0 0] 1 0
r 0.326667338 _9_ RTR  --- 2 tcp 1 [0 1000000 ffff0008 0] [energy 99.995119 ei 0.000 es 0.000 et 0.000 er 0.000] ------- [1:0 -1:0 32 0] [0 0] 1 0
r 0.326667338 _9_ AGT  --- 2 tcp 1 [0 1000000 ffff0008 0] [energy 99.995119 ei 0.000 es 0.000 et 0.000 er 0.000] ------- [1:0 -1:0 32 0] [0 0] 1 0
r 0.326667907 _10_ RTR  --- 2 tcp 1 [0 1000000 ffff0008 0] [energy 99.995119 ei 0.000 es 0.000 et 0.000 er 0.000] ------- [1:0 -1:0 32 0] [0 0] 1 0
r 0.326667907 _10_ AGT  --- 2 tcp 1 [0 1000000 ffff0008 0] [energy 99.995119 ei 0.000 es 0.000 et 0.000 er 0.000] ------- [1:0 -1:0 32 0] [0 0] 1 0
r 0.326668000 _6_ RTR  --- 2 tcp 1 [0 1000000 ffff0008 0] [energy 99.995119 ei 0.000 es 0.000 et 0.000 er 0.000] ------- [1:0 -1:0 32 0] [0 0] 1 0
r 0.326668000 _6_ AGT  --- 2 tcp 1 [0 1000000 ffff0008 0] [energy 99.995119 ei 0.000 es 0.000 et 0.000 er 0.000] ------- [1:0 -1:0 32 0] [0 0] 1 0
r 0.326668085 _8_ RTR  --- 2 tcp 1 [0 1000000 ffff0008 0] [energy 99.995119 ei 0.000 es 0.000 et 0.000 er 0.000] ------- [1:0 -1:0 32 0] [0 0] 1 0
r 0.326668085 _8_ AGT  --- 2 tcp 1 [0 1000000 ffff0008 0] [energy 99.995119 ei 0.000 es 0.000 et 0.000 er 0.000] ------- [1:0 -1:0 32 0] [0 0] 1 0
r 0.326668139 _0_ RTR  --- 2 tcp 1 [0 1000000 ffff0008 0] [energy 99.999874 ei 0.000 es 0.000 et 0.000 er 0.000] ------- [1:0 -1:0 32 0] [0 0] 1 0
r 0.326668139 _0_ AGT  --- 2 tcp 1 [0 1000000 ffff0008 0] [energy 99.999874 ei 0.000 es 0.000 et 0.000 er 0.000] ------- [1:0 -1:0 32 0] [0 0] 1 0
s 0.602783512 _2_ AGT  --- 3 tcp 1 [0 2000000 0 0] [energy 99.991056 ei 0.000 es 0.000 et 0.000 er 0.000] ------- [2:0 -1:0 32 0] [0 0] 0 0
r 0.602783512 _2_ RTR  --- 3 tcp 1 [0 2000000 0 0] [energy 99.991056 ei 0.000 es 0.000 et 0.000 er 0.000] ------- [2:0 -1:0 32 0] [0 0] 0 0
s 0.602783512 _2_ RTR  --- 3 tcp 1 [0 2000000 0 0] [energy 99.991056 ei 0.000 es 0.000 et 0.000 er 0.000] ------- [2:0 -1:0 32 0] [0 0] 0 0
s 0.602808512 _2_ MAC  --- 3 tcp 21 [0 2000000 ffff0008 0] [energy 99.991056 ei 0.000 es 0.000 et 0.000 er 0.000] ------- [2:0 -1:0 32 0] [0 0] 0 0
N -t 0.602809 -n 4 -e 99.991011
N -t 0.602809 -n 1 -e 99.991011
N -t 0.602809 -n 3 -e 99.991054
N -t 0.602809 -n 9 -e 99.991054
N -t 0.602809 -n 7 -e 99.991054
N -t 0.602810 -n 5 -e 99.991011
N -t 0.602810 -n 10 -e 99.991054
N -t 0.602810 -n 8 -e 99.991054
N -t 0.602810 -n 0 -e 99.999832
N -t 0.602810 -n 6 -e 99.991054
r 0.602892861 _3_ MAC  --- 3 tcp 1 [0 2000000 ffff0008 0] [energy 99.991054 ei 0.000 es 0.000 et 0.000 er 0.000] ------- [2:0 -1:0 32 0] [0 0] 1 0
r 0.602893139 _9_ MAC  --- 3 tcp 1 [0 2000000 ffff0008 0] [energy 99.991054 ei 0.000 es 0.000 et 0.000 er 0.000] ------- [2:0 -1:0 32 0] [0 0] 1 0
r 0.602893267 _7_ MAC  --- 3 tcp 1 [0 2000000 ffff0008 0] [energy 99.991054 ei 0.000 es 0.000 et 0.000 er 0.000] ------- [2:0 -1:0 32 0] [0 0] 1 0
r 0.602893745 _10_ MAC  --- 3 tcp 1 [0 2000000 ffff0008 0] [energy 99.991054 ei 0.000 es 0.000 et 0.000 er 0.000] ------- [2:0 -1:0 32 0] [0 0] 1 0
r 0.602893896 _8_ MAC  --- 3 tcp 1 [0 2000000 ffff0008 0] [energy 99.991054 ei 0.000 es 0.000 et 0.000 er 0.000] ------- [2:0 -1:0 32 0] [0 0] 1 0
r 0.602893957 _0_ MAC  --- 3 tcp 1 [0 2000000 ffff0008 0] [energy 99.999832 ei 0.000 es 0.000 et 0.000 er 0.000] ------- [2:0 -1:0 32 0] [0 0] 1 0
r 0.602893985 _6_ MAC  --- 3 tcp 1 [0 2000000 ffff0008 0] [energy 99.991054 ei 0.000 es 0.000 et 0.000 er 0.000] ------- [2:0 -1:0 32 0] [0 0] 1 0
r 0.602917861 _3_ RTR  --- 3 tcp 1 [0 2000000 ffff0008 0] [energy 99.991054 ei 0.000 es 0.000 et 0.000 er 0.000] ------- [2:0 -1:0 32 0] [0 0] 1 0
r 0.602917861 _3_ AGT  --- 3 tcp 1 [0 2000000 ffff0008 0] [energy 99.991054 ei 0.000 es 0.000 et 0.000 er 0.000] ------- [2:0 -1:0 32 0] [0 0] 1 0
r 0.602918139 _9_ RTR  --- 3 tcp 1 [0 2000000 ffff0008 0] [energy 99.991054 ei 0.000 es 0.000 et 0.000 er 0.000] ------- [2:0 -1:0 32 0] [0 0] 1 0
r 0.602918139 _9_ AGT  --- 3 tcp 1 [0 2000000 ffff0008 0] [energy 99.991054 ei 0.000 es 0.000 et 0.000 er 0.000] ------- [2:0 -1:0 32 0] [0 0] 1 0
r 0.602918267 _7_ RTR  --- 3 tcp 1 [0 2000000 ffff0008 0] [energy 99.991054 ei 0.000 es 0.000 et 0.000 er 0.000] ------- [2:0 -1:0 32 0] [0 0] 1 0
r 0.602918267 _7_ AGT  --- 3 tcp 1 [0 2000000 ffff0008 0] [energy 99.991054 ei 0.000 es 0.000 et 0.000 er 0.000] ------- [2:0 -1:0 32 0] [0 0] 1 0
r 0.602918745 _10_ RTR  --- 3 tcp 1 [0 2000000 ffff0008 0] [energy 99.991054 ei 0.000 es 0.000 et 0.000 er 0.000] ------- [2:0 -1:0 32 0] [0 0] 1 0
r 0.602918745 _10_ AGT  --- 3 tcp 1 [0 2000000 ffff0008 0] [energy 99.991054 ei 0.000 es 0.000 et 0.000 er 0.000] ------- [2:0 -1:0 32 0] [0 0] 1 0
r 0.602918896 _8_ RTR  --- 3 tcp 1 [0 2000000 ffff0008 0] [energy 99.991054 ei 0.000 es 0.000 et 0.000 er 0.000] ------- [2:0 -1:0 32 0] [0 0] 1 0
r 0.602918896 _8_ AGT  --- 3 tcp 1 [0 2000000 ffff0008 0] [energy 99.991054 ei 0.000 es 0.000 et 0.000 er 0.000] ------- [2:0 -1:0 32 0] [0 0] 1 0
r 0.602918957 _0_ RTR  --- 3 tcp 1 [0 2000000 ffff0008 0] [energy 99.999832 ei 0.000 es 0.000 et 0.000 er 0.000] ------- [2:0 -1:0 32 0] [0 0] 1 0
r 0.602918957 _0_ AGT  --- 3 tcp 1 [0 2000000 ffff0008 0] [energy 99.999832 ei 0.000 es 0.000 et 0.000 er 0.000] ------- [2:0 -1:0 32 0] [0 0] 1 0
r 0.602918985 _6_ RTR  --- 3 tcp 1 [0 2000000 ffff0008 0] [energy 99.991054 ei 0.000 es 0.000 et 0.000 er 0.000] ------- [2:0 -1:0 32 0] [0 0] 1 0
r 0.602918985 _6_ AGT  --- 3 tcp 1 [0 2000000 ffff0008 0] [energy 99.991054 ei 0.000 es 0.000 et 0.000 er 0.000] ------- [2:0 -1:0 32 0] [0 0] 1 0
s 2.154613999 _8_ AGT  --- 4 udp 8 [0 8000000 0 0] [energy 99.965867 ei 0.000 es 0.000 et 0.000 er 0.000] ------- [8:0 -1:0 32 0] 
r 2.154613999 _8_ RTR  --- 4 udp 8 [0 8000000 0 0] [energy 99.965867 ei 0.000 es 0.000 et 0.000 er 0.000] ------- [8:0 -1:0 32 0] 
s 2.154613999 _8_ RTR  --- 4 udp 8 [0 8000000 0 0] [energy 99.965867 ei 0.000 es 0.000 et 0.000 er 0.000] ------- [8:0 -1:0 32 0] 
s 2.154638999 _8_ MAC  --- 4 udp 28 [0 8000000 8 0] [energy 99.965867 ei 0.000 es 0.000 et 0.000 er 0.000] ------- [8:0 -1:0 32 0] 
s 2.440984081 _10_ AGT  --- 5 udp 10 [0 a000000 0 0] [energy 99.961317 ei 0.000 es 0.000 et 0.000 er 0.000] ------- [10:0 -1:0 32 0] 
r 2.440984081 _10_ RTR  --- 5 udp 10 [0 a000000 0 0] [energy 99.961317 ei 0.000 es 0.000 et 0.000 er 0.000] ------- [10:0 -1:0 32 0] 
s 2.440984081 _10_ RTR  --- 5 udp 10 [0 a000000 0 0] [energy 99.961317 ei 0.000 es 0.000 et 0.000 er 0.000] ------- [10:0 -1:0 32 0] 
s 2.441009081 _10_ MAC  --- 5 udp 30 [0 a000000 8 0] [energy 99.961317 ei 0.000 es 0.000 et 0.000 er 0.000] ------- [10:0 -1:0 32 0] 
s 2.495083085 _9_ AGT  --- 6 udp 9 [0 9000000 0 0] [energy 99.960342 ei 0.000 es 0.000 et 0.000 er 0.000] ------- [9:0 -1:0 32 0] 
r 2.495083085 _9_ RTR  --- 6 udp 9 [0 9000000 0 0] [energy 99.960342 ei 0.000 es 0.000 et 0.000 er 0.000] ------- [9:0 -1:0 32 0] 
s 2.495083085 _9_ RTR  --- 6 udp 9 [0 9000000 0 0] [energy 99.960342 ei 0.000 es 0.000 et 0.000 er 0.000] ------- [9:0 -1:0 32 0] 
s 2.495108085 _9_ MAC  --- 6 udp 29 [0 9000000 8 0] [energy 99.960342 ei 0.000 es 0.000 et 0.000 er 0.000] ------- [9:0 -1:0 32 0] 
s 2.504546521 _7_ AGT  --- 7 udp 7 [0 7000000 0 0] [energy 99.960179 ei 0.000 es 0.000 et 0.000 er 0.000] ------- [7:0 -1:0 32 0] 
r 2.504546521 _7_ RTR  --- 7 udp 7 [0 7000000 0 0] [energy 99.960179 ei 0.000 es 0.000 et 0.000 er 0.000] ------- [7:0 -1:0 32 0] 
s 2.504546521 _7_ RTR  --- 7 udp 7 [0 7000000 0 0] [energy 99.960179 ei 0.000 es 0.000 et 0.000 er 0.000] ------- [7:0 -1:0 32 0] 
s 2.504571521 _7_ MAC  --- 7 udp 27 [0 7000000 8 0] [energy 99.960179 ei 0.000 es 0.000 et 0.000 er 0.000] ------- [7:0 -1:0 32 0] 
s 2.678165092 _6_ AGT  --- 8 udp 6 [0 6000000 0 0] [energy 99.957417 ei 0.000 es 0.000 et 0.000 er 0.000] ------- [6:0 -1:0 32 0] 
r 2.678165092 _6_ RTR  --- 8 udp 6 [0 6000000 0 0] [energy 99.957417 ei 0.000 es 0.000 et 0.000 er 0.000] ------- [6:0 -1:0 32 0] 
s 2.678165092 _6_ RTR  --- 8 udp 6 [0 6000000 0 0] [energy 99.957417 ei 0.000 es 0.000 et 0.000 er 0.000] ------- [6:0 -1:0 32 0] 
s 2.678190092 _6_ MAC  --- 8 udp 26 [0 6000000 8 0] [energy 99.957417 ei 0.000 es 0.000 et 0.000 er 0.000] ------- [6:0 -1:0 32 0] 
s 10.036105143 _5_ AGT  --- 0 audio 9843688 [0 5000000 ffff0000 0] [energy 99.837773 ei 0.000 es 0.000 et 0.000 er 0.000] ------- [0:28736000 0:0 0 32119040] 
r 10.036105143 _5_ RTR  --- 0 audio 9843688 [0 5000000 ffff0000 0] [energy 99.837773 ei 0.000 es 0.000 et 0.000 er 0.000] ------- [0:28736000 0:0 0 32119040] 
f 10.036105143 _5_ RTR  --- 0 audio 9843688 [0 5000000 ffff0000 0] [energy 99.837773 ei 0.000 es 0.000 et 0.000 er 0.000] ------- [0:28736000 0:0 0 32119040] 
s 10.036130143 _5_ MAC  --- 0 audio 9843708 [0 5000000 ffff0008 0] [energy 99.837773 ei 0.000 es 0.000 et 0.000 er 0.000] ------- [0:28736000 0:0 0 32119040] 
N -t 10.036130 -n 5 -e 0 
N -t 10.036131 -n 3 -e 98.892821
N -t 10.036131 -n 2 -e 98.892777
N -t 10.036131 -n 1 -e 98.892777
N -t 10.036131 -n 4 -e 98.892777
N -t 10.036132 -n 0 -e 80.312416
s 10.255551199 _4_ AGT  --- 0 audio 9843688 [0 4000000 0 0] [energy 98.889202 ei 0.000 es 0.000 et 0.000 er 0.945] ------- [0:8986624 0:28668384 0 32151776] 
r 10.255551199 _4_ RTR  --- 0 audio 9843688 [0 4000000 0 0] [energy 98.889202 ei 0.000 es 0.000 et 0.000 er 0.945] ------- [0:8986624 0:28668384 0 32151776] 
f 10.255551199 _4_ RTR  --- 0 audio 9843688 [0 4000000 0 0] [energy 98.889202 ei 0.000 es 0.000 et 0.000 er 0.945] ------- [0:8986624 0:28668384 0 32151776] 
s 10.363522550 _1_ AGT  --- 0 audio 9843688 [0 1000000 50c2 0] [energy 98.887415 ei 0.000 es 0.000 et 0.000 er 0.945] ------- [0:8986624 0:27755904 0 32168064] 
r 10.363522550 _1_ RTR  --- 0 audio 9843688 [0 1000000 50c2 0] [energy 98.887415 ei 0.000 es 0.000 et 0.000 er 0.945] ------- [0:8986624 0:27755904 0 32168064] 
f 10.363522550 _1_ RTR  --- 0 audio 9843688 [0 1000000 50c2 0] [energy 98.887415 ei 0.000 es 0.000 et 0.000 er 0.945] ------- [0:8986624 0:27755904 0 32168064] 
s 10.644838700 _2_ AGT  --- 0 audio 9843688 [0 2000000 0 0] [energy 98.882865 ei 0.000 es 0.000 et 0.000 er 0.945] ------- [0:27832168 0:49 0 32211984] 
r 10.644838700 _2_ RTR  --- 0 audio 9843688 [0 2000000 0 0] [energy 98.882865 ei 0.000 es 0.000 et 0.000 er 0.945] ------- [0:27832168 0:49 0 32211984] 
f 10.644838700 _2_ RTR  --- 0 audio 9843688 [0 2000000 0 0] [energy 98.882865 ei 0.000 es 0.000 et 0.000 er 0.945] ------- [0:27832168 0:49 0 32211984] 
s 11.006945676 _3_ AGT  --- 0 audio 9843688 [0 3000000 1052 0] [energy 98.877058 ei 0.000 es 0.000 et 0.000 er 0.945] ------- [0:0 0:0 0 32252560] 
r 11.006945676 _3_ RTR  --- 0 audio 9843688 [0 3000000 1052 0] [energy 98.877058 ei 0.000 es 0.000 et 0.000 er 0.945] ------- [0:0 0:0 0 32252560] 
f 11.006945676 _3_ RTR  --- 0 audio 9843688 [0 3000000 1052 0] [energy 98.877058 ei 0.000 es 0.000 et 0.000 er 0.945] ------- [0:0 0:0 0 32252560] 
s 20.336245348 _4_ AGT  --- 0 audio 9843688 [0 4000000 0 0] [energy 98.725402 ei 0.000 es 0.000 et 0.000 er 0.945] ------- [0:8986624 0:28668384 0 32151776] 
r 20.336245348 _4_ RTR  --- 0 audio 9843688 [0 4000000 0 0] [energy 98.725402 ei 0.000 es 0.000 et 0.000 er 0.945] ------- [0:8986624 0:28668384 0 32151776] 
f 20.336245348 _4_ RTR  --- 0 audio 9843688 [0 4000000 0 0] [energy 98.725402 ei 0.000 es 0.000 et 0.000 er 0.945] ------- [0:8986624 0:28668384 0 32151776] 
s 20.441224473 _1_ AGT  --- 0 audio 9843688 [0 1000000 50c2 0] [energy 98.723777 ei 0.000 es 0.000 et 0.000 er 0.945] ------- [0:8986624 0:27755904 0 32168064] 
r 20.441224473 _1_ RTR  --- 0 audio 9843688 [0 1000000 50c2 0] [energy 98.723777 ei 0.000 es 0.000 et 0.000 er 0.945] ------- [0:8986624 0:27755904 0 32168064] 
f 20.441224473 _1_ RTR  --- 0 audio 9843688 [0 1000000 50c2 0] [energy 98.723777 ei 0.000 es 0.000 et 0.000 er 0.945] ------- [0:8986624 0:27755904 0 32168064] 
s 20.723411217 _2_ AGT  --- 0 audio 9843688 [0 2000000 0 0] [energy 98.719065 ei 0.000 es 0.000 et 0.000 er 0.945] ------- [0:27832168 0:49 0 32211984] 
r 20.723411217 _2_ RTR  --- 0 audio 9843688 [0 2000000 0 0] [energy 98.719065 ei 0.000 es 0.000 et 0.000 er 0.945] ------- [0:27832168 0:49 0 32211984] 
f 20.723411217 _2_ RTR  --- 0 audio 9843688 [0 2000000 0 0] [energy 98.719065 ei 0.000 es 0.000 et 0.000 er 0.945] ------- [0:27832168 0:49 0 32211984] 
s 21.082446507 _3_ AGT  --- 0 audio 9843688 [0 3000000 1052 0] [energy 98.713421 ei 0.000 es 0.000 et 0.000 er 0.945] ------- [0:0 0:0 0 32252560] 
r 21.082446507 _3_ RTR  --- 0 audio 9843688 [0 3000000 1052 0] [energy 98.713421 ei 0.000 es 0.000 et 0.000 er 0.945] ------- [0:0 0:0 0 32252560] 
f 21.082446507 _3_ RTR  --- 0 audio 9843688 [0 3000000 1052 0] [energy 98.713421 ei 0.000 es 0.000 et 0.000 er 0.945] ------- [0:0 0:0 0 32252560] 
s 30.416855061 _4_ AGT  --- 0 audio 9843688 [0 4000000 0 0] [energy 98.561602 ei 0.000 es 0.000 et 0.000 er 0.945] ------- [0:8986624 0:28668384 0 32151776] 
r 30.416855061 _4_ RTR  --- 0 audio 9843688 [0 4000000 0 0] [energy 98.561602 ei 0.000 es 0.000 et 0.000 er 0.945] ------- [0:8986624 0:28668384 0 32151776] 
f 30.416855061 _4_ RTR  --- 0 audio 9843688 [0 4000000 0 0] [energy 98.561602 ei 0.000 es 0.000 et 0.000 er 0.945] ------- [0:8986624 0:28668384 0 32151776] 
s 30.523524490 _1_ AGT  --- 0 audio 9843688 [0 1000000 50c2 0] [energy 98.559815 ei 0.000 es 0.000 et 0.000 er 0.945] ------- [0:8986624 0:27755904 0 32168064] 
r 30.523524490 _1_ RTR  --- 0 audio 9843688 [0 1000000 50c2 0] [energy 98.559815 ei 0.000 es 0.000 et 0.000 er 0.945] ------- [0:8986624 0:27755904 0 32168064] 
f 30.523524490 _1_ RTR  --- 0 audio 9843688 [0 1000000 50c2 0] [energy 98.559815 ei 0.000 es 0.000 et 0.000 er 0.945] ------- [0:8986624 0:27755904 0 32168064] 
s 30.797278663 _2_ AGT  --- 0 audio 9843688 [0 2000000 0 0] [energy 98.555427 ei 0.000 es 0.000 et 0.000 er 0.945] ------- [0:27832168 0:49 0 32211984] 
r 30.797278663 _2_ RTR  --- 0 audio 9843688 [0 2000000 0 0] [energy 98.555427 ei 0.000 es 0.000 et 0.000 er 0.945] ------- [0:27832168 0:49 0 32211984] 
f 30.797278663 _2_ RTR  --- 0 audio 9843688 [0 2000000 0 0] [energy 98.555427 ei 0.000 es 0.000 et 0.000 er 0.945] ------- [0:27832168 0:49 0 32211984] 
s 31.166427226 _3_ AGT  --- 0 audio 9843688 [0 3000000 1052 0] [energy 98.549458 ei 0.000 es 0.000 et 0.000 er 0.945] ------- [0:0 0:0 0 32252560] 
r 31.166427226 _3_ RTR  --- 0 audio 9843688 [0 3000000 1052 0] [energy 98.549458 ei 0.000 es 0.000 et 0.000 er 0.945] ------- [0:0 0:0 0 32252560] 
f 31.166427226 _3_ RTR  --- 0 audio 9843688 [0 3000000 1052 0] [energy 98.549458 ei 0.000 es 0.000 et 0.000 er 0.945] ------- [0:0 0:0 0 32252560] 
s 40.501491733 _4_ AGT  --- 0 audio 9843688 [0 4000000 0 0] [energy 98.397802 ei 0.000 es 0.000 et 0.000 er 0.945] ------- [0:8986624 0:28668384 0 32151776] 
r 40.501491733 _4_ RTR  --- 0 audio 9843688 [0 4000000 0 0] [energy 98.397802 ei 0.000 es 0.000 et 0.000 er 0.945] ------- [0:8986624 0:28668384 0 32151776] 
f 40.501491733 _4_ RTR  --- 0 audio 9843688 [0 4000000 0 0] [energy 98.397802 ei 0.000 es 0.000 et 0.000 er 0.945] ------- [0:8986624 0:28668384 0 32151776] 
s 40.604964303 _1_ AGT  --- 0 audio 9843688 [0 1000000 50c2 0] [energy 98.396015 ei 0.000 es 0.000 et 0.000 er 0.945] ------- [0:8986624 0:27755904 0 32168064] 
r 40.604964303 _1_ RTR  --- 0 audio 9843688 [0 1000000 50c2 0] [energy 98.396015 ei 0.000 es 0.000 et 0.000 er 0.945] ------- [0:8986624 0:27755904 0 32168064] 
f 40.604964303 _1_ RTR  --- 0 audio 9843688 [0 1000000 50c2 0] [energy 98.396015 ei 0.000 es 0.000 et 0.000 er 0.945] ------- [0:8986624 0:27755904 0 32168064] 
s 40.879263594 _2_ AGT  --- 0 audio 9843688 [0 2000000 0 0] [energy 98.391627 ei 0.000 es 0.000 et 0.000 er 0.945] ------- [0:27832168 0:49 0 32211984] 
r 40.879263594 _2_ RTR  --- 0 audio 9843688 [0 2000000 0 0] [energy 98.391627 ei 0.000 es 0.000 et 0.000 er 0.945] ------- [0:27832168 0:49 0 32211984] 
f 40.879263594 _2_ RTR  --- 0 audio 9843688 [0 2000000 0 0] [energy 98.391627 ei 0.000 es 0.000 et 0.000 er 0.945] ------- [0:27832168 0:49 0 32211984] 
s 40.933003321 _3_ AGT  --- 0 audio 9843688 [0 3000000 1052 0] [energy 98.390696 ei 0.000 es 0.000 et 0.000 er 0.945] ------- [0:0 0:0 0 32252560] 
r 40.933003321 _3_ RTR  --- 0 audio 9843688 [0 3000000 1052 0] [energy 98.390696 ei 0.000 es 0.000 et 0.000 er 0.945] ------- [0:0 0:0 0 32252560] 
f 40.933003321 _3_ RTR  --- 0 audio 9843688 [0 3000000 1052 0] [energy 98.390696 ei 0.000 es 0.000 et 0.000 er 0.945] ------- [0:0 0:0 0 32252560] 
r 49.410962978 _3_ MAC  --- 0 audio 9843688 [0 5000000 ffff0008 0] [energy 98.253058 ei 0.000 es 0.000 et 0.000 er 0.945] ------- [0:28736000 0:0 0 32119040] 
r 49.410963629 _0_ MAC  --- 0 audio 9843688 [0 5000000 ffff0008 0] [energy 80.312416 ei 0.000 es 0.000 et 0.000 er 19.688] ------- [0:28736000 0:0 0 32119040] 
s 50.259359501 _4_ AGT  --- 0 audio 9843688 [0 4000000 0 0] [energy 98.239202 ei 0.000 es 0.000 et 0.000 er 0.945] ------- [0:8986624 0:28668384 0 32151776] 