n -t * -s 2  -x 374.92414003239998 -y 209.275089067788 -Z 0 -z 20  -v circle -c green
n -t * -s 1  -x 162.805718197857 -y 333.918089067788 -Z 0 -z 20  -v circle -c green
n -t * -s 0  -x 217.74456915745299 -y 235.918089067788 -Z 0 -z 20  -v circle -c green
n -t * -s 3  -x 82.543912601456 -y 186.918089067788 -Z 0 -z 20  -v circle -c green
n -t * -s 4  -x 311.805718197857 -y 141.918089067788 -Z 0 -z 20  -v circle -c green
n -t * -s 5  -x 261.74456915745299 -y 326.918089067788 -Z 0 -z 20  -v circle -c green
n -t * -s 6  -x 176.54391260145599 -y 155.918089067788 -Z 0 -z 20  -v circle -c green
n -t * -s 7  -x 310.805718197857 -y 237.918089067788 -Z 0 -z 20  -v circle -c green
n -t * -s 8  -x 132.74456915745299 -y 262.918089067788 -Z 0 -z 20  -v circle -c green
n -t * -s 9  -x 344.74456915745299 -y 305.918089067788 -Z 0 -z 20  -v circle -c green
V -t * -v 1.0a5 -a 0
W -t * -x 500 -y 500
A -t * -n 1 -p 0 -o 0x7fffffff -c 30 -a 1
A -t * -h 1 -m 1073741823 -s 0
+ -t 50.000000000 -s 1 -d -1 -p cbr -e 50 -c 2 -a 0 -i 0 -k AGT 
- -t 50.000000000 -s 1 -d -1 -p cbr -e 50 -c 2 -a 0 -i 0 -k AGT
h -t 50.000000000 -s 1 -d -1 -p cbr -e 50 -c 2 -a 0 -i 0 -k AGT
+ -t 50.000000000 -s 1 -d -1 -p cbr -e 50 -c 2 -a 0 -i 0 -k RTR 
- -t 50.000000000 -s 1 -d -1 -p cbr -e 50 -c 2 -a 0 -i 0 -k RTR
h -t 50.000000000 -s 1 -d -1 -p cbr -e 50 -c 2 -a 0 -i 0 -k RTR
+ -t 50.000000000 -s 2 -d -1 -p cbr -e 50 -c 2 -a 0 -i 1 -k AGT 
- -t 50.000000000 -s 2 -d -1 -p cbr -e 50 -c 2 -a 0 -i 1 -k AGT
h -t 50.000000000 -s 2 -d -1 -p cbr -e 50 -c 2 -a 0 -i 1 -k AGT
+ -t 50.000000000 -s 2 -d -1 -p cbr -e 50 -c 2 -a 0 -i 1 -k RTR 
- -t 50.000000000 -s 2 -d -1 -p cbr -e 50 -c 2 -a 0 -i 1 -k RTR
h -t 50.000000000 -s 2 -d -1 -p cbr -e 50 -c 2 -a 0 -i 1 -k RTR
+ -t 50.000000000 -s 3 -d -1 -p cbr -e 50 -c 2 -a 0 -i 2 -k AGT 
- -t 50.000000000 -s 3 -d -1 -p cbr -e 50 -c 2 -a 0 -i 2 -k AGT
h -t 50.000000000 -s 3 -d -1 -p cbr -e 50 -c 2 -a 0 -i 2 -k AGT
+ -t 50.000000000 -s 3 -d -1 -p cbr -e 50 -c 2 -a 0 -i 2 -k RTR 
- -t 50.000000000 -s 3 -d -1 -p cbr -e 50 -c 2 -a 0 -i 2 -k RTR
h -t 50.000000000 -s 3 -d -1 -p cbr -e 50 -c 2 -a 0 -i 2 -k RTR
+ -t 50.000000000 -s 4 -d -1 -p cbr -e 50 -c 2 -a 0 -i 3 -k AGT 
- -t 50.000000000 -s 4 -d -1 -p cbr -e 50 -c 2 -a 0 -i 3 -k AGT
h -t 50.000000000 -s 4 -d -1 -p cbr -e 50 -c 2 -a 0 -i 3 -k AGT
+ -t 50.000000000 -s 4 -d -1 -p cbr -e 50 -c 2 -a 0 -i 3 -k RTR 
- -t 50.000000000 -s 4 -d -1 -p cbr -e 50 -c 2 -a 0 -i 3 -k RTR
h -t 50.000000000 -s 4 -d -1 -p cbr -e 50 -c 2 -a 0 -i 3 -k RTR
+ -t 50.000000000 -s 5 -d -1 -p cbr -e 50 -c 2 -a 0 -i 4 -k AGT 
- -t 50.000000000 -s 5 -d -1 -p cbr -e 50 -c 2 -a 0 -i 4 -k AGT
h -t 50.000000000 -s 5 -d -1 -p cbr -e 50 -c 2 -a 0 -i 4 -k AGT
+ -t 50.000000000 -s 5 -d -1 -p cbr -e 50 -c 2 -a 0 -i 4 -k RTR 
- -t 50.000000000 -s 5 -d -1 -p cbr -e 50 -c 2 -a 0 -i 4 -k RTR
h -t 50.000000000 -s 5 -d -1 -p cbr -e 50 -c 2 -a 0 -i 4 -k RTR
+ -t 50.000000000 -s 6 -d -1 -p cbr -e 50 -c 2 -a 0 -i 5 -k AGT 
- -t 50.000000000 -s 6 -d -1 -p cbr -e 50 -c 2 -a 0 -i 5 -k AGT
h -t 50.000000000 -s 6 -d -1 -p cbr -e 50 -c 2 -a 0 -i 5 -k AGT
+ -t 50.000000000 -s 6 -d -1 -p cbr -e 50 -c 2 -a 0 -i 5 -k RTR 
- -t 50.000000000 -s 6 -d -1 -p cbr -e 50 -c 2 -a 0 -i 5 -k RTR
h -t 50.000000000 -s 6 -d -1 -p cbr -e 50 -c 2 -a 0 -i 5 -k RTR
+ -t 50.000000000 -s 7 -d -1 -p cbr -e 50 -c 2 -a 0 -i 6 -k AGT 
- -t 50.000000000 -s 7 -d -1 -p cbr -e 50 -c 2 -a 0 -i 6 -k AGT
h -t 50.000000000 -s 7 -d -1 -p cbr -e 50 -c 2 -a 0 -i 6 -k AGT
+ -t 50.000000000 -s 7 -d -1 -p cbr -e 50 -c 2 -a 0 -i 6 -k RTR 
- -t 50.000000000 -s 7 -d -1 -p cbr -e 50 -c 2 -a 0 -i 6 -k RTR
h -t 50.000000000 -s 7 -d -1 -p cbr -e 50 -c 2 -a 0 -i 6 -k RTR
+ -t 50.000000000 -s 8 -d -1 -p cbr -e 50 -c 2 -a 0 -i 7 -k AGT 
- -t 50.000000000 -s 8 -d -1 -p cbr -e 50 -c 2 -a 0 -i 7 -k AGT
h -t 50.000000000 -s 8 -d -1 -p cbr -e 50 -c 2 -a 0 -i 7 -k AGT
+ -t 50.000000000 -s 8 -d -1 -p cbr -e 50 -c 2 -a 0 -i 7 -k RTR 
- -t 50.000000000 -s 8 -d -1 -p cbr -e 50 -c 2 -a 0 -i 7 -k RTR
h -t 50.000000000 -s 8 -d -1 -p cbr -e 50 -c 2 -a 0 -i 7 -k RTR
+ -t 50.000000000 -s 9 -d -1 -p cbr -e 50 -c 2 -a 0 -i 8 -k AGT 
- -t 50.000000000 -s 9 -d -1 -p cbr -e 50 -c 2 -a 0 -i 8 -k AGT
h -t 50.000000000 -s 9 -d -1 -p cbr -e 50 -c 2 -a 0 -i 8 -k AGT
+ -t 50.000000000 -s 9 -d -1 -p cbr -e 50 -c 2 -a 0 -i 8 -k RTR 
- -t 50.000000000 -s 9 -d -1 -p cbr -e 50 -c 2 -a 0 -i 8 -k RTR
h -t 50.000000000 -s 9 -d -1 -p cbr -e 50 -c 2 -a 0 -i 8 -k RTR
+ -t 50.000095000 -s 4 -d -1 -p ARP -e 86 -c 2 -a 0 -i 0 -k MAC 
- -t 50.000095000 -s 4 -d -1 -p ARP -e 86 -c 2 -a 0 -i 0 -k MAC
h -t 50.000095000 -s 4 -d -1 -p ARP -e 86 -c 2 -a 0 -i 0 -k MAC
r -t 50.000783308 -s 2 -d -1 -p ARP -e 28 -c 2 -a 0 -i 0 -k MAC
r -t 50.000783320 -s 7 -d -1 -p ARP -e 28 -c 2 -a 0 -i 0 -k MAC
r -t 50.000783443 -s 0 -d -1 -p ARP -e 28 -c 2 -a 0 -i 0 -k MAC
r -t 50.000783453 -s 6 -d -1 -p ARP -e 28 -c 2 -a 0 -i 0 -k MAC
r -t 50.000783558 -s 9 -d -1 -p ARP -e 28 -c 2 -a 0 -i 0 -k MAC
r -t 50.000783639 -s 5 -d -1 -p ARP -e 28 -c 2 -a 0 -i 0 -k MAC
r -t 50.000783720 -s 8 -d -1 -p ARP -e 28 -c 2 -a 0 -i 0 -k MAC
r -t 50.000783779 -s 3 -d -1 -p ARP -e 28 -c 2 -a 0 -i 0 -k MAC
r -t 50.000783810 -s 1 -d -1 -p ARP -e 28 -c 2 -a 0 -i 0 -k MAC
+ -t 50.000953453 -s 6 -d -1 -p ARP -e 86 -c 2 -a 0 -i 0 -k MAC 
- -t 50.000953453 -s 6 -d -1 -p ARP -e 86 -c 2 -a 0 -i 0 -k MAC
h -t 50.000953453 -s 6 -d -1 -p ARP -e 86 -c 2 -a 0 -i 0 -k MAC
+ -t 50.000953558 -s 9 -d -1 -p ARP -e 86 -c 2 -a 0 -i 0 -k MAC 
- -t 50.000953558 -s 9 -d -1 -p ARP -e 86 -c 2 -a 0 -i 0 -k MAC
h -t 50.000953558 -s 9 -d -1 -p ARP -e 86 -c 2 -a 0 -i 0 -k MAC
d -t 50.000954041 -s 0 -d -1 -p ARP -e 86 -c 2 -a 0 -i 0 -k MAC
d -t 50.000954115 -s 4 -d -1 -p ARP -e 86 -c 2 -a 0 -i 0 -k MAC
d -t 50.000954171 -s 1 -d -1 -p ARP -e 86 -c 2 -a 0 -i 0 -k MAC
r -t 50.001641783 -s 3 -d -1 -p ARP -e 28 -c 2 -a 0 -i 0 -k MAC
r -t 50.001641811 -s 7 -d -1 -p ARP -e 28 -c 2 -a 0 -i 0 -k MAC
r -t 50.001641839 -s 8 -d -1 -p ARP -e 28 -c 2 -a 0 -i 0 -k MAC
r -t 50.001641843 -s 5 -d -1 -p ARP -e 28 -c 2 -a 0 -i 0 -k MAC
r -t 50.001641895 -s 2 -d -1 -p ARP -e 28 -c 2 -a 0 -i 0 -k MAC
d -t 50.001642041 -s 0 -d -1 -p ARP -e 86 -c 2 -a 0 -i 0 -k MAC
d -t 50.001642115 -s 4 -d -1 -p ARP -e 86 -c 2 -a 0 -i 0 -k MAC
d -t 50.001642171 -s 1 -d -1 -p ARP -e 86 -c 2 -a 0 -i 0 -k MAC
+ -t 50.002136279 -s 8 -d -1 -p ARP -e 86 -c 2 -a 0 -i 0 -k MAC 
- -t 50.002136279 -s 8 -d -1 -p ARP -e 86 -c 2 -a 0 -i 0 -k MAC
h -t 50.002136279 -s 8 -d -1 -p ARP -e 86 -c 2 -a 0 -i 0 -k MAC
+ -t 50.002136517 -s 3 -d -1 -p ARP -e 86 -c 2 -a 0 -i 0 -k MAC 
- -t 50.002136517 -s 3 -d -1 -p ARP -e 86 -c 2 -a 0 -i 0 -k MAC
h -t 50.002136517 -s 3 -d -1 -p ARP -e 86 -c 2 -a 0 -i 0 -k MAC
d -t 50.002136847 -s 6 -d -1 -p ARP -e 86 -c 2 -a 0 -i 0 -k MAC
d -t 50.002136997 -s 0 -d -1 -p ARP -e 86 -c 2 -a 0 -i 0 -k MAC
d -t 50.002137275 -s 5 -d -1 -p ARP -e 86 -c 2 -a 0 -i 0 -k MAC
d -t 50.002137296 -s 4 -d -1 -p ARP -e 86 -c 2 -a 0 -i 0 -k MAC
d -t 50.002137297 -s 7 -d -1 -p ARP -e 86 -c 2 -a 0 -i 0 -k MAC
d -t 50.002137477 -s 9 -d -1 -p ARP -e 86 -c 2 -a 0 -i 0 -k MAC
d -t 50.002137495 -s 2 -d -1 -p ARP -e 86 -c 2 -a 0 -i 0 -k MAC
r -t 50.002824536 -s 1 -d -1 -p ARP -e 28 -c 2 -a 0 -i 0 -k MAC
d -t 50.002824847 -s 6 -d -1 -p ARP -e 86 -c 2 -a 0 -i 0 -k MAC
d -t 50.002824997 -s 0 -d -1 -p ARP -e 86 -c 2 -a 0 -i 0 -k MAC
d -t 50.002825275 -s 5 -d -1 -p ARP -e 86 -c 2 -a 0 -i 0 -k MAC
d -t 50.002825296 -s 4 -d -1 -p ARP -e 86 -c 2 -a 0 -i 0 -k MAC
d -t 50.002825297 -s 7 -d -1 -p ARP -e 86 -c 2 -a 0 -i 0 -k MAC
d -t 50.002825477 -s 9 -d -1 -p ARP -e 86 -c 2 -a 0 -i 0 -k MAC
d -t 50.002825495 -s 2 -d -1 -p ARP -e 86 -c 2 -a 0 -i 0 -k MAC
+ -t 50.003259495 -s 2 -d -1 -p ARP -e 86 -c 2 -a 0 -i 0 -k MAC 
- -t 50.003259495 -s 2 -d -1 -p ARP -e 86 -c 2 -a 0 -i 0 -k MAC
h -t 50.003259495 -s 2 -d -1 -p ARP -e 86 -c 2 -a 0 -i 0 -k MAC
r -t 50.003947729 -s 7 -d -1 -p ARP -e 28 -c 2 -a 0 -i 0 -k MAC
r -t 50.003947803 -s 4 -d -1 -p ARP -e 28 -c 2 -a 0 -i 0 -k MAC
r -t 50.003947832 -s 9 -d -1 -p ARP -e 28 -c 2 -a 0 -i 0 -k MAC
r -t 50.003948026 -s 0 -d -1 -p ARP -e 28 -c 2 -a 0 -i 0 -k MAC
r -t 50.003948039 -s 5 -d -1 -p ARP -e 28 -c 2 -a 0 -i 0 -k MAC
r -t 50.003948180 -s 6 -d -1 -p ARP -e 28 -c 2 -a 0 -i 0 -k MAC
r -t 50.003948315 -s 1 -d -1 -p ARP -e 28 -c 2 -a 0 -i 0 -k MAC
r -t 50.003948322 -s 8 -d -1 -p ARP -e 28 -c 2 -a 0 -i 0 -k MAC
r -t 50.003948472 -s 3 -d -1 -p ARP -e 28 -c 2 -a 0 -i 0 -k MAC
+ -t 50.004097729 -s 7 -d -1 -p ARP -e 86 -c 2 -a 0 -i 0 -k MAC 
- -t 50.004097729 -s 7 -d -1 -p ARP -e 86 -c 2 -a 0 -i 0 -k MAC
h -t 50.004097729 -s 7 -d -1 -p ARP -e 86 -c 2 -a 0 -i 0 -k MAC
+ -t 50.004098315 -s 1 -d -1 -p ARP -e 86 -c 2 -a 0 -i 0 -k MAC 
- -t 50.004098315 -s 1 -d -1 -p ARP -e 86 -c 2 -a 0 -i 0 -k MAC
h -t 50.004098315 -s 1 -d -1 -p ARP -e 86 -c 2 -a 0 -i 0 -k MAC
d -t 50.004098572 -s 8 -d -1 -p ARP -e 86 -c 2 -a 0 -i 0 -k MAC
d -t 50.004098646 -s 5 -d -1 -p ARP -e 86 -c 2 -a 0 -i 0 -k MAC
d -t 50.004098873 -s 3 -d -1 -p ARP -e 86 -c 2 -a 0 -i 0 -k MAC
d -t 50.004098910 -s 6 -d -1 -p ARP -e 86 -c 2 -a 0 -i 0 -k MAC
r -t 50.004785963 -s 2 -d -1 -p ARP -e 28 -c 2 -a 0 -i 0 -k MAC
r -t 50.004785982 -s 9 -d -1 -p ARP -e 28 -c 2 -a 0 -i 0 -k MAC
r -t 50.004786039 -s 0 -d -1 -p ARP -e 28 -c 2 -a 0 -i 0 -k MAC
r -t 50.004786049 -s 4 -d -1 -p ARP -e 28 -c 2 -a 0 -i 0 -k MAC
d -t 50.004786572 -s 8 -d -1 -p ARP -e 86 -c 2 -a 0 -i 0 -k MAC
d -t 50.004786646 -s 5 -d -1 -p ARP -e 86 -c 2 -a 0 -i 0 -k MAC
d -t 50.004786873 -s 3 -d -1 -p ARP -e 86 -c 2 -a 0 -i 0 -k MAC
d -t 50.004786910 -s 6 -d -1 -p ARP -e 86 -c 2 -a 0 -i 0 -k MAC
+ -t 50.004936039 -s 0 -d -1 -p RTS -e 44 -c 2 -a 0 -i 0 -k MAC 
- -t 50.004936039 -s 0 -d -1 -p RTS -e 44 -c 2 -a 0 -i 0 -k MAC
h -t 50.004936039 -s 0 -d -1 -p RTS -e 44 -c 2 -a 0 -i 0 -k MAC
r -t 50.005288482 -s 4 -d -1 -p RTS -e 44 -c 2 -a 0 -i 0 -k MAC
+ -t 50.005298482 -s 4 -d -1 -p CTS -e 38 -c 2 -a 0 -i 0 -k MAC 
- -t 50.005298482 -s 4 -d -1 -p CTS -e 38 -c 2 -a 0 -i 0 -k MAC
h -t 50.005298482 -s 4 -d -1 -p CTS -e 38 -c 2 -a 0 -i 0 -k MAC
r -t 50.005602926 -s 0 -d -1 -p CTS -e 38 -c 2 -a 0 -i 0 -k MAC
+ -t 50.005612926 -s 0 -d -1 -p ARP -e 86 -c 2 -a 0 -i 0 -k MAC 
- -t 50.005612926 -s 0 -d -1 -p ARP -e 86 -c 2 -a 0 -i 0 -k MAC
h -t 50.005612926 -s 0 -d -1 -p ARP -e 86 -c 2 -a 0 -i 0 -k MAC
r -t 50.006301369 -s 4 -d -1 -p ARP -e 28 -c 2 -a 0 -i 0 -k MAC
+ -t 50.006311369 -s 4 -d -1 -p ACK -e 38 -c 2 -a 0 -i 0 -k MAC 
- -t 50.006311369 -s 4 -d -1 -p ACK -e 38 -c 2 -a 0 -i 0 -k MAC
h -t 50.006311369 -s 4 -d -1 -p ACK -e 38 -c 2 -a 0 -i 0 -k MAC
r -t 50.006615812 -s 0 -d -1 -p ACK -e 38 -c 2 -a 0 -i 0 -k MAC
+ -t 50.006846008 -s 5 -d -1 -p ARP -e 86 -c 2 -a 0 -i 0 -k MAC 
- -t 50.006846008 -s 5 -d -1 -p ARP -e 86 -c 2 -a 0 -i 0 -k MAC
h -t 50.006846008 -s 5 -d -1 -p ARP -e 86 -c 2 -a 0 -i 0 -k MAC
r -t 50.007534293 -s 9 -d -1 -p ARP -e 28 -c 2 -a 0 -i 0 -k MAC
r -t 50.007534338 -s 1 -d -1 -p ARP -e 28 -c 2 -a 0 -i 0 -k MAC
r -t 50.007534345 -s 0 -d -1 -p ARP -e 28 -c 2 -a 0 -i 0 -k MAC
r -t 50.007534347 -s 7 -d -1 -p ARP -e 28 -c 2 -a 0 -i 0 -k MAC
r -t 50.007534488 -s 8 -d -1 -p ARP -e 28 -c 2 -a 0 -i 0 -k MAC
r -t 50.007534552 -s 2 -d -1 -p ARP -e 28 -c 2 -a 0 -i 0 -k MAC
r -t 50.007534645 -s 6 -d -1 -p ARP -e 28 -c 2 -a 0 -i 0 -k MAC
r -t 50.007534647 -s 4 -d -1 -p ARP -e 28 -c 2 -a 0 -i 0 -k MAC
r -t 50.007534766 -s 3 -d -1 -p ARP -e 28 -c 2 -a 0 -i 0 -k MAC
+ -t 50.007664647 -s 4 -d -1 -p RTS -e 44 -c 2 -a 0 -i 0 -k MAC 
- -t 50.007664647 -s 4 -d -1 -p RTS -e 44 -c 2 -a 0 -i 0 -k MAC
h -t 50.007664647 -s 4 -d -1 -p RTS -e 44 -c 2 -a 0 -i 0 -k MAC
r -t 50.008017090 -s 0 -d -1 -p RTS -e 44 -c 2 -a 0 -i 0 -k MAC
+ -t 50.008027090 -s 0 -d -1 -p CTS -e 38 -c 2 -a 0 -i 0 -k MAC 
- -t 50.008027090 -s 0 -d -1 -p CTS -e 38 -c 2 -a 0 -i 0 -k MAC
h -t 50.008027090 -s 0 -d -1 -p CTS -e 38 -c 2 -a 0 -i 0 -k MAC
r -t 50.008331533 -s 4 -d -1 -p CTS -e 38 -c 2 -a 0 -i 0 -k MAC
+ -t 50.008341533 -s 4 -d -1 -p cbr -e 108 -c 2 -a 0 -i 3 -k MAC 
- -t 50.008341533 -s 4 -d -1 -p cbr -e 108 -c 2 -a 0 -i 3 -k MAC
h -t 50.008341533 -s 4 -d -1 -p cbr -e 108 -c 2 -a 0 -i 3 -k MAC
r -t 50.009205976 -s 0 -d -1 -p cbr -e 50 -c 2 -a 0 -i 3 -k MAC
+ -t 50.009215976 -s 0 -d -1 -p ACK -e 38 -c 2 -a 0 -i 0 -k MAC 
- -t 50.009215976 -s 0 -d -1 -p ACK -e 38 -c 2 -a 0 -i 0 -k MAC
h -t 50.009215976 -s 0 -d -1 -p ACK -e 38 -c 2 -a 0 -i 0 -k MAC
r -t 50.009230976 -s 0 -d -1 -p cbr -e 50 -c 2 -a 0 -i 3 -k AGT
r -t 50.009520420 -s 4 -d -1 -p ACK -e 38 -c 2 -a 0 -i 0 -k MAC
+ -t 50.009869976 -s 0 -d -1 -p RTS -e 44 -c 2 -a 0 -i 0 -k MAC 
- -t 50.009869976 -s 0 -d -1 -p RTS -e 44 -c 2 -a 0 -i 0 -k MAC
h -t 50.009869976 -s 0 -d -1 -p RTS -e 44 -c 2 -a 0 -i 0 -k MAC
r -t 50.010222508 -s 2 -d -1 -p RTS -e 44 -c 2 -a 0 -i 0 -k MAC
+ -t 50.010232508 -s 2 -d -1 -p CTS -e 38 -c 2 -a 0 -i 0 -k MAC 
- -t 50.010232508 -s 2 -d -1 -p CTS -e 38 -c 2 -a 0 -i 0 -k MAC
h -t 50.010232508 -s 2 -d -1 -p CTS -e 38 -c 2 -a 0 -i 0 -k MAC
r -t 50.010537039 -s 0 -d -1 -p CTS -e 38 -c 2 -a 0 -i 0 -k MAC
+ -t 50.010547039 -s 0 -d -1 -p ARP -e 86 -c 2 -a 0 -i 0 -k MAC 
- -t 50.010547039 -s 0 -d -1 -p ARP -e 86 -c 2 -a 0 -i 0 -k MAC
h -t 50.010547039 -s 0 -d -1 -p ARP -e 86 -c 2 -a 0 -i 0 -k MAC
r -t 50.011235571 -s 2 -d -1 -p ARP -e 28 -c 2 -a 0 -i 0 -k MAC
+ -t 50.011245571 -s 2 -d -1 -p ACK -e 38 -c 2 -a 0 -i 0 -k MAC 
- -t 50.011245571 -s 2 -d -1 -p ACK -e 38 -c 2 -a 0 -i 0 -k MAC
h -t 50.011245571 -s 2 -d -1 -p ACK -e 38 -c 2 -a 0 -i 0 -k MAC
r -t 50.011550102 -s 0 -d -1 -p ACK -e 38 -c 2 -a 0 -i 0 -k MAC
+ -t 50.011980102 -s 0 -d -1 -p RTS -e 44 -c 2 -a 0 -i 0 -k MAC 
- -t 50.011980102 -s 0 -d -1 -p RTS -e 44 -c 2 -a 0 -i 0 -k MAC
h -t 50.011980102 -s 0 -d -1 -p RTS -e 44 -c 2 -a 0 -i 0 -k MAC
r -t 50.012332412 -s 7 -d -1 -p RTS -e 44 -c 2 -a 0 -i 0 -k MAC
+ -t 50.012342412 -s 7 -d -1 -p CTS -e 38 -c 2 -a 0 -i 0 -k MAC 
- -t 50.012342412 -s 7 -d -1 -p CTS -e 38 -c 2 -a 0 -i 0 -k MAC
h -t 50.012342412 -s 7 -d -1 -p CTS -e 38 -c 2 -a 0 -i 0 -k MAC
r -t 50.012646723 -s 0 -d -1 -p CTS -e 38 -c 2 -a 0 -i 0 -k MAC
+ -t 50.012656723 -s 0 -d -1 -p ARP -e 86 -c 2 -a 0 -i 0 -k MAC 
- -t 50.012656723 -s 0 -d -1 -p ARP -e 86 -c 2 -a 0 -i 0 -k MAC
h -t 50.012656723 -s 0 -d -1 -p ARP -e 86 -c 2 -a 0 -i 0 -k MAC
r -t 50.013345033 -s 7 -d -1 -p ARP -e 28 -c 2 -a 0 -i 0 -k MAC
+ -t 50.013355033 -s 7 -d -1 -p ACK -e 38 -c 2 -a 0 -i 0 -k MAC 
- -t 50.013355033 -s 7 -d -1 -p ACK -e 38 -c 2 -a 0 -i 0 -k MAC
h -t 50.013355033 -s 7 -d -1 -p ACK -e 38 -c 2 -a 0 -i 0 -k MAC
r -t 50.013659343 -s 0 -d -1 -p ACK -e 38 -c 2 -a 0 -i 0 -k MAC
+ -t 50.013849267 -s 2 -d -1 -p RTS -e 44 -c 2 -a 0 -i 0 -k MAC 
- -t 50.013849267 -s 2 -d -1 -p RTS -e 44 -c 2 -a 0 -i 0 -k MAC
h -t 50.013849267 -s 2 -d -1 -p RTS -e 44 -c 2 -a 0 -i 0 -k MAC
r -t 50.014201798 -s 0 -d -1 -p RTS -e 44 -c 2 -a 0 -i 0 -k MAC
+ -t 50.014211798 -s 0 -d -1 -p CTS -e 38 -c 2 -a 0 -i 0 -k MAC 
- -t 50.014211798 -s 0 -d -1 -p CTS -e 38 -c 2 -a 0 -i 0 -k MAC
h -t 50.014211798 -s 0 -d -1 -p CTS -e 38 -c 2 -a 0 -i 0 -k MAC
r -t 50.014516330 -s 2 -d -1 -p CTS -e 38 -c 2 -a 0 -i 0 -k MAC
+ -t 50.014526330 -s 2 -d -1 -p cbr -e 108 -c 2 -a 0 -i 1 -k MAC 
- -t 50.014526330 -s 2 -d -1 -p cbr -e 108 -c 2 -a 0 -i 1 -k MAC
h -t 50.014526330 -s 2 -d -1 -p cbr -e 108 -c 2 -a 0 -i 1 -k MAC
r -t 50.015390861 -s 0 -d -1 -p cbr -e 50 -c 2 -a 0 -i 1 -k MAC
+ -t 50.015400861 -s 0 -d -1 -p ACK -e 38 -c 2 -a 0 -i 0 -k MAC 
- -t 50.015400861 -s 0 -d -1 -p ACK -e 38 -c 2 -a 0 -i 0 -k MAC
h -t 50.015400861 -s 0 -d -1 -p ACK -e 38 -c 2 -a 0 -i 0 -k MAC
r -t 50.015415861 -s 0 -d -1 -p cbr -e 50 -c 2 -a 0 -i 1 -k AGT
r -t 50.015705393 -s 2 -d -1 -p ACK -e 38 -c 2 -a 0 -i 0 -k MAC
+ -t 50.015794861 -s 0 -d -1 -p RTS -e 44 -c 2 -a 0 -i 0 -k MAC 
- -t 50.015794861 -s 0 -d -1 -p RTS -e 44 -c 2 -a 0 -i 0 -k MAC
h -t 50.015794861 -s 0 -d -1 -p RTS -e 44 -c 2 -a 0 -i 0 -k MAC
r -t 50.016147198 -s 5 -d -1 -p RTS -e 44 -c 2 -a 0 -i 0 -k MAC
+ -t 50.016157198 -s 5 -d -1 -p CTS -e 38 -c 2 -a 0 -i 0 -k MAC 
- -t 50.016157198 -s 5 -d -1 -p CTS -e 38 -c 2 -a 0 -i 0 -k MAC
h -t 50.016157198 -s 5 -d -1 -p CTS -e 38 -c 2 -a 0 -i 0 -k MAC
r -t 50.016461535 -s 0 -d -1 -p CTS -e 38 -c 2 -a 0 -i 0 -k MAC
+ -t 50.016471535 -s 0 -d -1 -p ARP -e 86 -c 2 -a 0 -i 0 -k MAC 
- -t 50.016471535 -s 0 -d -1 -p ARP -e 86 -c 2 -a 0 -i 0 -k MAC
h -t 50.016471535 -s 0 -d -1 -p ARP -e 86 -c 2 -a 0 -i 0 -k MAC
r -t 50.017159872 -s 5 -d -1 -p ARP -e 28 -c 2 -a 0 -i 0 -k MAC
+ -t 50.017169872 -s 5 -d -1 -p ACK -e 38 -c 2 -a 0 -i 0 -k MAC 
- -t 50.017169872 -s 5 -d -1 -p ACK -e 38 -c 2 -a 0 -i 0 -k MAC
h -t 50.017169872 -s 5 -d -1 -p ACK -e 38 -c 2 -a 0 -i 0 -k MAC
r -t 50.017474209 -s 0 -d -1 -p ACK -e 38 -c 2 -a 0 -i 0 -k MAC
+ -t 50.017663872 -s 5 -d -1 -p RTS -e 44 -c 2 -a 0 -i 0 -k MAC 
- -t 50.017663872 -s 5 -d -1 -p RTS -e 44 -c 2 -a 0 -i 0 -k MAC
h -t 50.017663872 -s 5 -d -1 -p RTS -e 44 -c 2 -a 0 -i 0 -k MAC
r -t 50.018016209 -s 0 -d -1 -p RTS -e 44 -c 2 -a 0 -i 0 -k MAC
+ -t 50.018026209 -s 0 -d -1 -p CTS -e 38 -c 2 -a 0 -i 0 -k MAC 
- -t 50.018026209 -s 0 -d -1 -p CTS -e 38 -c 2 -a 0 -i 0 -k MAC
h -t 50.018026209 -s 0 -d -1 -p CTS -e 38 -c 2 -a 0 -i 0 -k MAC
r -t 50.018330546 -s 5 -d -1 -p CTS -e 38 -c 2 -a 0 -i 0 -k MAC
+ -t 50.018340546 -s 5 -d -1 -p cbr -e 108 -c 2 -a 0 -i 4 -k MAC 
- -t 50.018340546 -s 5 -d -1 -p cbr -e 108 -c 2 -a 0 -i 4 -k MAC
h -t 50.018340546 -s 5 -d -1 -p cbr -e 108 -c 2 -a 0 -i 4 -k MAC
r -t 50.019204883 -s 0 -d -1 -p cbr -e 50 -c 2 -a 0 -i 4 -k MAC
+ -t 50.019214883 -s 0 -d -1 -p ACK -e 38 -c 2 -a 0 -i 0 -k MAC 
- -t 50.019214883 -s 0 -d -1 -p ACK -e 38 -c 2 -a 0 -i 0 -k MAC
h -t 50.019214883 -s 0 -d -1 -p ACK -e 38 -c 2 -a 0 -i 0 -k MAC
r -t 50.019229883 -s 0 -d -1 -p cbr -e 50 -c 2 -a 0 -i 4 -k AGT
r -t 50.019519220 -s 5 -d -1 -p ACK -e 38 -c 2 -a 0 -i 0 -k MAC
+ -t 50.019749193 -s 7 -d -1 -p RTS -e 44 -c 2 -a 0 -i 0 -k MAC 
- -t 50.019749193 -s 7 -d -1 -p RTS -e 44 -c 2 -a 0 -i 0 -k MAC
h -t 50.019749193 -s 7 -d -1 -p RTS -e 44 -c 2 -a 0 -i 0 -k MAC
r -t 50.020101503 -s 0 -d -1 -p RTS -e 44 -c 2 -a 0 -i 0 -k MAC
+ -t 50.020111503 -s 0 -d -1 -p CTS -e 38 -c 2 -a 0 -i 0 -k MAC 
- -t 50.020111503 -s 0 -d -1 -p CTS -e 38 -c 2 -a 0 -i 0 -k MAC
h -t 50.020111503 -s 0 -d -1 -p CTS -e 38 -c 2 -a 0 -i 0 -k MAC
r -t 50.020415814 -s 7 -d -1 -p CTS -e 38 -c 2 -a 0 -i 0 -k MAC
+ -t 50.020425814 -s 7 -d -1 -p cbr -e 108 -c 2 -a 0 -i 6 -k MAC 
- -t 50.020425814 -s 7 -d -1 -p cbr -e 108 -c 2 -a 0 -i 6 -k MAC
h -t 50.020425814 -s 7 -d -1 -p cbr -e 108 -c 2 -a 0 -i 6 -k MAC
r -t 50.021290124 -s 0 -d -1 -p cbr -e 50 -c 2 -a 0 -i 6 -k MAC
+ -t 50.021300124 -s 0 -d -1 -p ACK -e 38 -c 2 -a 0 -i 0 -k MAC 
- -t 50.021300124 -s 0 -d -1 -p ACK -e 38 -c 2 -a 0 -i 0 -k MAC
h -t 50.021300124 -s 0 -d -1 -p ACK -e 38 -c 2 -a 0 -i 0 -k MAC
r -t 50.021315124 -s 0 -d -1 -p cbr -e 50 -c 2 -a 0 -i 6 -k AGT
r -t 50.021604434 -s 7 -d -1 -p ACK -e 38 -c 2 -a 0 -i 0 -k MAC
+ -t 55.003395772 -s 1 -d -1 -p cbr -e 50 -c 2 -a 0 -i 9 -k AGT 
- -t 55.003395772 -s 1 -d -1 -p cbr -e 50 -c 2 -a 0 -i 9 -k AGT
h -t 55.003395772 -s 1 -d -1 -p cbr -e 50 -c 2 -a 0 -i 9 -k AGT
+ -t 55.003395772 -s 1 -d -1 -p cbr -e 50 -c 2 -a 0 -i 9 -k RTR 
- -t 55.003395772 -s 1 -d -1 -p cbr -e 50 -c 2 -a 0 -i 9 -k RTR
h -t 55.003395772 -s 1 -d -1 -p cbr -e 50 -c 2 -a 0 -i 9 -k RTR
d -t 55.003395772 -s 1 -d -1 -p cbr -e 50 -c 2 -a 0 -i 0 -k IFQ
+ -t 55.004010772 -s 1 -d -1 -p ARP -e 86 -c 2 -a 0 -i 0 -k MAC 
- -t 55.004010772 -s 1 -d -1 -p ARP -e 86 -c 2 -a 0 -i 0 -k MAC
h -t 55.004010772 -s 1 -d -1 -p ARP -e 86 -c 2 -a 0 -i 0 -k MAC
r -t 55.004699029 -s 8 -d -1 -p ARP -e 28 -c 2 -a 0 -i 0 -k MAC
r -t 55.004699103 -s 5 -d -1 -p ARP -e 28 -c 2 -a 0 -i 0 -k MAC
r -t 55.004699147 -s 0 -d -1 -p ARP -e 28 -c 2 -a 0 -i 0 -k MAC
r -t 55.004699331 -s 3 -d -1 -p ARP -e 28 -c 2 -a 0 -i 0 -k MAC
r -t 55.004699360 -s 7 -d -1 -p ARP -e 28 -c 2 -a 0 -i 0 -k MAC
r -t 55.004699367 -s 6 -d -1 -p ARP -e 28 -c 2 -a 0 -i 0 -k MAC
r -t 55.004699386 -s 9 -d -1 -p ARP -e 28 -c 2 -a 0 -i 0 -k MAC
r -t 55.004699582 -s 4 -d -1 -p ARP -e 28 -c 2 -a 0 -i 0 -k MAC
r -t 55.004699592 -s 2 -d -1 -p ARP -e 28 -c 2 -a 0 -i 0 -k MAC
+ -t 55.004934147 -s 0 -d -1 -p RTS -e 44 -c 2 -a 0 -i 0 -k MAC 
- -t 55.004934147 -s 0 -d -1 -p RTS -e 44 -c 2 -a 0 -i 0 -k MAC
h -t 55.004934147 -s 0 -d -1 -p RTS -e 44 -c 2 -a 0 -i 0 -k MAC
r -t 55.005286521 -s 1 -d -1 -p RTS -e 44 -c 2 -a 0 -i 0 -k MAC
+ -t 55.005296521 -s 1 -d -1 -p CTS -e 38 -c 2 -a 0 -i 0 -k MAC 
- -t 55.005296521 -s 1 -d -1 -p CTS -e 38 -c 2 -a 0 -i 0 -k MAC
h -t 55.005296521 -s 1 -d -1 -p CTS -e 38 -c 2 -a 0 -i 0 -k MAC
r -t 55.005600896 -s 0 -d -1 -p CTS -e 38 -c 2 -a 0 -i 0 -k MAC
+ -t 55.005610896 -s 0 -d -1 -p ARP -e 86 -c 2 -a 0 -i 0 -k MAC 
- -t 55.005610896 -s 0 -d -1 -p ARP -e 86 -c 2 -a 0 -i 0 -k MAC
h -t 55.005610896 -s 0 -d -1 -p ARP -e 86 -c 2 -a 0 -i 0 -k MAC
r -t 55.006299270 -s 1 -d -1 -p ARP -e 28 -c 2 -a 0 -i 0 -k MAC
+ -t 55.006309270 -s 1 -d -1 -p ACK -e 38 -c 2 -a 0 -i 0 -k MAC 
- -t 55.006309270 -s 1 -d -1 -p ACK -e 38 -c 2 -a 0 -i 0 -k MAC
h -t 55.006309270 -s 1 -d -1 -p ACK -e 38 -c 2 -a 0 -i 0 -k MAC
r -t 55.006613645 -s 0 -d -1 -p ACK -e 38 -c 2 -a 0 -i 0 -k MAC
+ -t 55.007203270 -s 1 -d -1 -p RTS -e 44 -c 2 -a 0 -i 0 -k MAC 
- -t 55.007203270 -s 1 -d -1 -p RTS -e 44 -c 2 -a 0 -i 0 -k MAC
h -t 55.007203270 -s 1 -d -1 -p RTS -e 44 -c 2 -a 0 -i 0 -k MAC
r -t 55.007555645 -s 0 -d -1 -p RTS -e 44 -c 2 -a 0 -i 0 -k MAC
+ -t 55.007565645 -s 0 -d -1 -p CTS -e 38 -c 2 -a 0 -i 0 -k MAC 
- -t 55.007565645 -s 0 -d -1 -p CTS -e 38 -c 2 -a 0 -i 0 -k MAC
h -t 55.007565645 -s 0 -d -1 -p CTS -e 38 -c 2 -a 0 -i 0 -k MAC
r -t 55.007870019 -s 1 -d -1 -p CTS -e 38 -c 2 -a 0 -i 0 -k MAC
+ -t 55.007880019 -s 1 -d -1 -p cbr -e 108 -c 2 -a 0 -i 9 -k MAC 
- -t 55.007880019 -s 1 -d -1 -p cbr -e 108 -c 2 -a 0 -i 9 -k MAC
h -t 55.007880019 -s 1 -d -1 -p cbr -e 108 -c 2 -a 0 -i 9 -k MAC
r -t 55.008744394 -s 0 -d -1 -p cbr -e 50 -c 2 -a 0 -i 9 -k MAC
+ -t 55.008754394 -s 0 -d -1 -p ACK -e 38 -c 2 -a 0 -i 0 -k MAC 
- -t 55.008754394 -s 0 -d -1 -p ACK -e 38 -c 2 -a 0 -i 0 -k MAC
h -t 55.008754394 -s 0 -d -1 -p ACK -e 38 -c 2 -a 0 -i 0 -k MAC
r -t 55.008769394 -s 0 -d -1 -p cbr -e 50 -c 2 -a 0 -i 9 -k AGT
r -t 55.009058768 -s 1 -d -1 -p ACK -e 38 -c 2 -a 0 -i 0 -k MAC
+ -t 55.142046607 -s 3 -d -1 -p cbr -e 50 -c 2 -a 0 -i 10 -k AGT 
- -t 55.142046607 -s 3 -d -1 -p cbr -e 50 -c 2 -a 0 -i 10 -k AGT
h -t 55.142046607 -s 3 -d -1 -p cbr -e 50 -c 2 -a 0 -i 10 -k AGT
+ -t 55.142046607 -s 3 -d -1 -p cbr -e 50 -c 2 -a 0 -i 10 -k RTR 
- -t 55.142046607 -s 3 -d -1 -p cbr -e 50 -c 2 -a 0 -i 10 -k RTR
h -t 55.142046607 -s 3 -d -1 -p cbr -e 50 -c 2 -a 0 -i 10 -k RTR
d -t 55.142046607 -s 3 -d -1 -p cbr -e 50 -c 2 -a 0 -i 2 -k IFQ
+ -t 55.142661607 -s 3 -d -1 -p ARP -e 86 -c 2 -a 0 -i 0 -k MAC 
- -t 55.142661607 -s 3 -d -1 -p ARP -e 86 -c 2 -a 0 -i 0 -k MAC
h -t 55.142661607 -s 3 -d -1 -p ARP -e 86 -c 2 -a 0 -i 0 -k MAC
r -t 55.143349910 -s 8 -d -1 -p ARP -e 28 -c 2 -a 0 -i 0 -k MAC
r -t 55.143349936 -s 6 -d -1 -p ARP -e 28 -c 2 -a 0 -i 0 -k MAC
r -t 55.143350086 -s 0 -d -1 -p ARP -e 28 -c 2 -a 0 -i 0 -k MAC
r -t 55.143350165 -s 1 -d -1 -p ARP -e 28 -c 2 -a 0 -i 0 -k MAC
r -t 55.143350365 -s 5 -d -1 -p ARP -e 28 -c 2 -a 0 -i 0 -k MAC
r -t 55.143350385 -s 4 -d -1 -p ARP -e 28 -c 2 -a 0 -i 0 -k MAC
r -t 55.143350386 -s 7 -d -1 -p ARP -e 28 -c 2 -a 0 -i 0 -k MAC
r -t 55.143350566 -s 9 -d -1 -p ARP -e 28 -c 2 -a 0 -i 0 -k MAC
r -t 55.143350584 -s 2 -d -1 -p ARP -e 28 -c 2 -a 0 -i 0 -k MAC
+ -t 55.143485086 -s 0 -d -1 -p RTS -e 44 -c 2 -a 0 -i 0 -k MAC 
- -t 55.143485086 -s 0 -d -1 -p RTS -e 44 -c 2 -a 0 -i 0 -k MAC
h -t 55.143485086 -s 0 -d -1 -p RTS -e 44 -c 2 -a 0 -i 0 -k MAC
r -t 55.143837565 -s 3 -d -1 -p RTS -e 44 -c 2 -a 0 -i 0 -k MAC
+ -t 55.143847565 -s 3 -d -1 -p CTS -e 38 -c 2 -a 0 -i 0 -k MAC 
- -t 55.143847565 -s 3 -d -1 -p CTS -e 38 -c 2 -a 0 -i 0 -k MAC
h -t 55.143847565 -s 3 -d -1 -p CTS -e 38 -c 2 -a 0 -i 0 -k MAC
r -t 55.144152045 -s 0 -d -1 -p CTS -e 38 -c 2 -a 0 -i 0 -k MAC
+ -t 55.144162045 -s 0 -d -1 -p ARP -e 86 -c 2 -a 0 -i 0 -k MAC 
- -t 55.144162045 -s 0 -d -1 -p ARP -e 86 -c 2 -a 0 -i 0 -k MAC
h -t 55.144162045 -s 0 -d -1 -p ARP -e 86 -c 2 -a 0 -i 0 -k MAC
r -t 55.144850524 -s 3 -d -1 -p ARP -e 28 -c 2 -a 0 -i 0 -k MAC
+ -t 55.144860524 -s 3 -d -1 -p ACK -e 38 -c 2 -a 0 -i 0 -k MAC 
- -t 55.144860524 -s 3 -d -1 -p ACK -e 38 -c 2 -a 0 -i 0 -k MAC
h -t 55.144860524 -s 3 -d -1 -p ACK -e 38 -c 2 -a 0 -i 0 -k MAC
r -t 55.145165003 -s 0 -d -1 -p ACK -e 38 -c 2 -a 0 -i 0 -k MAC
+ -t 55.145734524 -s 3 -d -1 -p RTS -e 44 -c 2 -a 0 -i 0 -k MAC 
- -t 55.145734524 -s 3 -d -1 -p RTS -e 44 -c 2 -a 0 -i 0 -k MAC
h -t 55.145734524 -s 3 -d -1 -p RTS -e 44 -c 2 -a 0 -i 0 -k MAC
r -t 55.146087003 -s 0 -d -1 -p RTS -e 44 -c 2 -a 0 -i 0 -k MAC
+ -t 55.146097003 -s 0 -d -1 -p CTS -e 38 -c 2 -a 0 -i 0 -k MAC 
- -t 55.146097003 -s 0 -d -1 -p CTS -e 38 -c 2 -a 0 -i 0 -k MAC
h -t 55.146097003 -s 0 -d -1 -p CTS -e 38 -c 2 -a 0 -i 0 -k MAC
r -t 55.146401483 -s 3 -d -1 -p CTS -e 38 -c 2 -a 0 -i 0 -k MAC
+ -t 55.146411483 -s 3 -d -1 -p cbr -e 108 -c 2 -a 0 -i 10 -k MAC 
- -t 55.146411483 -s 3 -d -1 -p cbr -e 108 -c 2 -a 0 -i 10 -k MAC
h -t 55.146411483 -s 3 -d -1 -p cbr -e 108 -c 2 -a 0 -i 10 -k MAC
r -t 55.147275962 -s 0 -d -1 -p cbr -e 50 -c 2 -a 0 -i 10 -k MAC
+ -t 55.147285962 -s 0 -d -1 -p ACK -e 38 -c 2 -a 0 -i 0 -k MAC 
- -t 55.147285962 -s 0 -d -1 -p ACK -e 38 -c 2 -a 0 -i 0 -k MAC
h -t 55.147285962 -s 0 -d -1 -p ACK -e 38 -c 2 -a 0 -i 0 -k MAC
r -t 55.147300962 -s 0 -d -1 -p cbr -e 50 -c 2 -a 0 -i 10 -k AGT
r -t 55.147590441 -s 3 -d -1 -p ACK -e 38 -c 2 -a 0 -i 0 -k MAC
+ -t 55.881226713 -s 4 -d -1 -p cbr -e 50 -c 2 -a 0 -i 11 -k AGT 
- -t 55.881226713 -s 4 -d -1 -p cbr -e 50 -c 2 -a 0 -i 11 -k AGT
h -t 55.881226713 -s 4 -d -1 -p cbr -e 50 -c 2 -a 0 -i 11 -k AGT
+ -t 55.881226713 -s 4 -d -1 -p cbr -e 50 -c 2 -a 0 -i 11 -k RTR 
- -t 55.881226713 -s 4 -d -1 -p cbr -e 50 -c 2 -a 0 -i 11 -k RTR
h -t 55.881226713 -s 4 -d -1 -p cbr -e 50 -c 2 -a 0 -i 11 -k RTR
+ -t 55.881901713 -s 4 -d -1 -p RTS -e 44 -c 2 -a 0 -i 0 -k MAC 
- -t 55.881901713 -s 4 -d -1 -p RTS -e 44 -c 2 -a 0 -i 0 -k MAC
h -t 55.881901713 -s 4 -d -1 -p RTS -e 44 -c 2 -a 0 -i 0 -k MAC
r -t 55.882254156 -s 0 -d -1 -p RTS -e 44 -c 2 -a 0 -i 0 -k MAC
+ -t 55.882264156 -s 0 -d -1 -p CTS -e 38 -c 2 -a 0 -i 0 -k MAC 
- -t 55.882264156 -s 0 -d -1 -p CTS -e 38 -c 2 -a 0 -i 0 -k MAC
h -t 55.882264156 -s 0 -d -1 -p CTS -e 38 -c 2 -a 0 -i 0 -k MAC
r -t 55.882568600 -s 4 -d -1 -p CTS -e 38 -c 2 -a 0 -i 0 -k MAC
+ -t 55.882578600 -s 4 -d -1 -p cbr -e 108 -c 2 -a 0 -i 11 -k MAC 
- -t 55.882578600 -s 4 -d -1 -p cbr -e 108 -c 2 -a 0 -i 11 -k MAC
h -t 55.882578600 -s 4 -d -1 -p cbr -e 108 -c 2 -a 0 -i 11 -k MAC
r -t 55.883443043 -s 0 -d -1 -p cbr -e 50 -c 2 -a 0 -i 11 -k MAC
+ -t 55.883453043 -s 0 -d -1 -p ACK -e 38 -c 2 -a 0 -i 0 -k MAC 
- -t 55.883453043 -s 0 -d -1 -p ACK -e 38 -c 2 -a 0 -i 0 -k MAC
h -t 55.883453043 -s 0 -d -1 -p ACK -e 38 -c 2 -a 0 -i 0 -k MAC
r -t 55.883468043 -s 0 -d -1 -p cbr -e 50 -c 2 -a 0 -i 11 -k AGT
r -t 55.883757486 -s 4 -d -1 -p ACK -e 38 -c 2 -a 0 -i 0 -k MAC
+ -t 57.346017519 -s 9 -d -1 -p cbr -e 50 -c 2 -a 0 -i 12 -k AGT 
- -t 57.346017519 -s 9 -d -1 -p cbr -e 50 -c 2 -a 0 -i 12 -k AGT
h -t 57.346017519 -s 9 -d -1 -p cbr -e 50 -c 2 -a 0 -i 12 -k AGT
+ -t 57.346017519 -s 9 -d -1 -p cbr -e 50 -c 2 -a 0 -i 12 -k RTR 
- -t 57.346017519 -s 9 -d -1 -p cbr -e 50 -c 2 -a 0 -i 12 -k RTR
h -t 57.346017519 -s 9 -d -1 -p cbr -e 50 -c 2 -a 0 -i 12 -k RTR
d -t 57.346017519 -s 9 -d -1 -p cbr -e 50 -c 2 -a 0 -i 8 -k IFQ
+ -t 57.346332519 -s 9 -d -1 -p ARP -e 86 -c 2 -a 0 -i 0 -k MAC 
- -t 57.346332519 -s 9 -d -1 -p ARP -e 86 -c 2 -a 0 -i 0 -k MAC
h -t 57.346332519 -s 9 -d -1 -p ARP -e 86 -c 2 -a 0 -i 0 -k MAC
r -t 57.347020772 -s 7 -d -1 -p ARP -e 28 -c 2 -a 0 -i 0 -k MAC
r -t 57.347020804 -s 5 -d -1 -p ARP -e 28 -c 2 -a 0 -i 0 -k MAC
r -t 57.347020856 -s 2 -d -1 -p ARP -e 28 -c 2 -a 0 -i 0 -k MAC
r -t 57.347021002 -s 0 -d -1 -p ARP -e 28 -c 2 -a 0 -i 0 -k MAC
r -t 57.347021076 -s 4 -d -1 -p ARP -e 28 -c 2 -a 0 -i 0 -k MAC
r -t 57.347021132 -s 1 -d -1 -p ARP -e 28 -c 2 -a 0 -i 0 -k MAC
r -t 57.347021240 -s 8 -d -1 -p ARP -e 28 -c 2 -a 0 -i 0 -k MAC
r -t 57.347021270 -s 6 -d -1 -p ARP -e 28 -c 2 -a 0 -i 0 -k MAC
r -t 57.347021478 -s 3 -d -1 -p ARP -e 28 -c 2 -a 0 -i 0 -k MAC
+ -t 57.347276002 -s 0 -d -1 -p RTS -e 44 -c 2 -a 0 -i 0 -k MAC 
- -t 57.347276002 -s 0 -d -1 -p RTS -e 44 -c 2 -a 0 -i 0 -k MAC
h -t 57.347276002 -s 0 -d -1 -p RTS -e 44 -c 2 -a 0 -i 0 -k MAC
+ -t 57.348316002 -s 0 -d -1 -p RTS -e 44 -c 2 -a 0 -i 0 -k MAC 
- -t 57.348316002 -s 0 -d -1 -p RTS -e 44 -c 2 -a 0 -i 0 -k MAC
h -t 57.348316002 -s 0 -d -1 -p RTS -e 44 -c 2 -a 0 -i 0 -k MAC
r -t 57.348668485 -s 9 -d -1 -p RTS -e 44 -c 2 -a 0 -i 0 -k MAC
+ -t 57.348678485 -s 9 -d -1 -p CTS -e 38 -c 2 -a 0 -i 0 -k MAC 
- -t 57.348678485 -s 9 -d -1 -p CTS -e 38 -c 2 -a 0 -i 0 -k MAC
h -t 57.348678485 -s 9 -d -1 -p CTS -e 38 -c 2 -a 0 -i 0 -k MAC
r -t 57.348982969 -s 0 -d -1 -p CTS -e 38 -c 2 -a 0 -i 0 -k MAC
+ -t 57.348992969 -s 0 -d -1 -p ARP -e 86 -c 2 -a 0 -i 0 -k MAC 
- -t 57.348992969 -s 0 -d -1 -p ARP -e 86 -c 2 -a 0 -i 0 -k MAC
h -t 57.348992969 -s 0 -d -1 -p ARP -e 86 -c 2 -a 0 -i 0 -k MAC
r -t 57.349681452 -s 9 -d -1 -p ARP -e 28 -c 2 -a 0 -i 0 -k MAC
+ -t 57.349691452 -s 9 -d -1 -p ACK -e 38 -c 2 -a 0 -i 0 -k MAC 
- -t 57.349691452 -s 9 -d -1 -p ACK -e 38 -c 2 -a 0 -i 0 -k MAC
h -t 57.349691452 -s 9 -d -1 -p ACK -e 38 -c 2 -a 0 -i 0 -k MAC
r -t 57.349995935 -s 0 -d -1 -p ACK -e 38 -c 2 -a 0 -i 0 -k MAC
+ -t 57.350165452 -s 9 -d -1 -p RTS -e 44 -c 2 -a 0 -i 0 -k MAC 
- -t 57.350165452 -s 9 -d -1 -p RTS -e 44 -c 2 -a 0 -i 0 -k MAC
h -t 57.350165452 -s 9 -d -1 -p RTS -e 44 -c 2 -a 0 -i 0 -k MAC
r -t 57.350517935 -s 0 -d -1 -p RTS -e 44 -c 2 -a 0 -i 0 -k MAC
+ -t 57.350527935 -s 0 -d -1 -p CTS -e 38 -c 2 -a 0 -i 0 -k MAC 
- -t 57.350527935 -s 0 -d -1 -p CTS -e 38 -c 2 -a 0 -i 0 -k MAC
h -t 57.350527935 -s 0 -d -1 -p CTS -e 38 -c 2 -a 0 -i 0 -k MAC
r -t 57.350832419 -s 9 -d -1 -p CTS -e 38 -c 2 -a 0 -i 0 -k MAC