n -t * -s 2  -x 374.92414003239998 -y 209.275089067788 -Z 0 -z 20  -v circle -c green
n -t * -s 1  -x 162.805718197857 -y 333.918089067788 -Z 0 -z 20  -v circle -c green
n -t * -s 0  -x 217.74456915745299 -y 235.918089067788 -Z 0 -z 20  -v circle -c green
n -t * -s 3  -x 82.543912601456 -y 186.918089067788 -Z 0 -z 20  -v circle -c green
n -t * -s 4  -x 311.805718197857 -y 141.918089067788 -Z 0 -z 20  -v circle -c green
n -t * -s 5  -x 261.74456915745299 -y 326.918089067788 -Z 0 -z 20  -v circle -c green
n -t * -s 6  -x 176.54391260145599 -y 155.918089067788 -Z 0 -z 20  -v circle -c green
n -t * -s 7  -x 310.805718197857 -y 237.918089067788 -Z 0 -z 20  -v circle -c green
n -t * -s 8  -x 132.74456915745299 -y 262.918089067788 -Z 0 -z 20  -v circle -c green
n -t * -s 9  -x 344.74456915745299 -y 305.918089067788 -Z 0 -z 20  -v circle -c green
V -t * -v 1.0a5 -a 0
W -t * -x 500 -y 500
A -t * -n 1 -p 0 -o 0x7fffffff -c 30 -a 1
A -t * -h 1 -m 1073741823 -s 0
+ -t 17.206000000 -s 5 -d -1 -p smac -e 9 -c 2 -a 0 -i 0 -k MAC 
- -t 17.206000000 -s 5 -d -1 -p smac -e 9 -c 2 -a 0 -i 0 -k MAC
h -t 17.206000000 -s 5 -d -1 -p smac -e 9 -c 2 -a 0 -i 0 -k MAC
+ -t 18.640000480 -s 8 -d -1 -p smac -e 9 -c 2 -a 0 -i 0 -k MAC 
- -t 18.640000480 -s 8 -d -1 -p smac -e 9 -c 2 -a 0 -i 0 -k MAC
h -t 18.640000480 -s 8 -d -1 -p smac -e 9 -c 2 -a 0 -i 0 -k MAC
+ -t 20.075000639 -s 4 -d -1 -p smac -e 9 -c 2 -a 0 -i 0 -k MAC 
- -t 20.075000639 -s 4 -d -1 -p smac -e 9 -c 2 -a 0 -i 0 -k MAC
h -t 20.075000639 -s 4 -d -1 -p smac -e 9 -c 2 -a 0 -i 0 -k MAC
+ -t 21.505000339 -s 7 -d -1 -p smac -e 9 -c 2 -a 0 -i 0 -k MAC 
- -t 21.505000339 -s 7 -d -1 -p smac -e 9 -c 2 -a 0 -i 0 -k MAC
h -t 21.505000339 -s 7 -d -1 -p smac -e 9 -c 2 -a 0 -i 0 -k MAC
+ -t 22.941000544 -s 2 -d -1 -p smac -e 9 -c 2 -a 0 -i 0 -k MAC 
- -t 22.941000544 -s 2 -d -1 -p smac -e 9 -c 2 -a 0 -i 0 -k MAC
h -t 22.941000544 -s 2 -d -1 -p smac -e 9 -c 2 -a 0 -i 0 -k MAC
+ -t 24.373000331 -s 1 -d -1 -p smac -e 9 -c 2 -a 0 -i 0 -k MAC 
- -t 24.373000331 -s 1 -d -1 -p smac -e 9 -c 2 -a 0 -i 0 -k MAC
h -t 24.373000331 -s 1 -d -1 -p smac -e 9 -c 2 -a 0 -i 0 -k MAC
+ -t 25.805000960 -s 5 -d -1 -p smac -e 9 -c 2 -a 0 -i 0 -k MAC 
- -t 25.805000960 -s 5 -d -1 -p smac -e 9 -c 2 -a 0 -i 0 -k MAC
h -t 25.805000960 -s 5 -d -1 -p smac -e 9 -c 2 -a 0 -i 0 -k MAC
+ -t 27.238001597 -s 6 -d -1 -p smac -e 9 -c 2 -a 0 -i 0 -k MAC 
- -t 27.238001597 -s 6 -d -1 -p smac -e 9 -c 2 -a 0 -i 0 -k MAC
h -t 27.238001597 -s 6 -d -1 -p smac -e 9 -c 2 -a 0 -i 0 -k MAC
+ -t 27.238001718 -s 3 -d -1 -p smac -e 9 -c 2 -a 0 -i 0 -k MAC 
- -t 27.238001718 -s 3 -d -1 -p smac -e 9 -c 2 -a 0 -i 0 -k MAC
h -t 27.238001718 -s 3 -d -1 -p smac -e 9 -c 2 -a 0 -i 0 -k MAC
d -t 27.238002022 -s 8 -d -1 -p smac -e 9 -c 2 -a 0 -i 0 -k MAC
d -t 27.238002197 -s 0 -d -1 -p smac -e 9 -c 2 -a 0 -i 0 -k MAC
d -t 27.238002276 -s 1 -d -1 -p smac -e 9 -c 2 -a 0 -i 0 -k MAC
d -t 27.238002476 -s 5 -d -1 -p smac -e 9 -c 2 -a 0 -i 0 -k MAC
d -t 27.238002497 -s 4 -d -1 -p smac -e 9 -c 2 -a 0 -i 0 -k MAC
d -t 27.238002498 -s 7 -d -1 -p smac -e 9 -c 2 -a 0 -i 0 -k MAC
d -t 27.238002678 -s 9 -d -1 -p smac -e 9 -c 2 -a 0 -i 0 -k MAC
d -t 27.238002695 -s 2 -d -1 -p smac -e 9 -c 2 -a 0 -i 0 -k MAC
d -t 27.241002022 -s 8 -d -1 -p smac -e 9 -c 2 -a 0 -i 0 -k MAC
d -t 27.241002197 -s 0 -d -1 -p smac -e 9 -c 2 -a 0 -i 0 -k MAC
d -t 27.241002276 -s 1 -d -1 -p smac -e 9 -c 2 -a 0 -i 0 -k MAC
d -t 27.241002476 -s 5 -d -1 -p smac -e 9 -c 2 -a 0 -i 0 -k MAC
d -t 27.241002497 -s 4 -d -1 -p smac -e 9 -c 2 -a 0 -i 0 -k MAC
d -t 27.241002498 -s 7 -d -1 -p smac -e 9 -c 2 -a 0 -i 0 -k MAC
d -t 27.241002678 -s 9 -d -1 -p smac -e 9 -c 2 -a 0 -i 0 -k MAC
d -t 27.241002695 -s 2 -d -1 -p smac -e 9 -c 2 -a 0 -i 0 -k MAC
+ -t 28.677001297 -s 0 -d -1 -p smac -e 9 -c 2 -a 0 -i 0 -k MAC 
- -t 28.677001297 -s 0 -d -1 -p smac -e 9 -c 2 -a 0 -i 0 -k MAC
h -t 28.677001297 -s 0 -d -1 -p smac -e 9 -c 2 -a 0 -i 0 -k MAC
+ -t 30.109001245 -s 9 -d -1 -p smac -e 9 -c 2 -a 0 -i 0 -k MAC 
- -t 30.109001245 -s 9 -d -1 -p smac -e 9 -c 2 -a 0 -i 0 -k MAC
h -t 30.109001245 -s 9 -d -1 -p smac -e 9 -c 2 -a 0 -i 0 -k MAC
+ -t 32.987001440 -s 8 -d -1 -p smac -e 9 -c 2 -a 0 -i 0 -k MAC 
- -t 32.987001440 -s 8 -d -1 -p smac -e 9 -c 2 -a 0 -i 0 -k MAC
h -t 32.987001440 -s 8 -d -1 -p smac -e 9 -c 2 -a 0 -i 0 -k MAC
+ -t 34.427002160 -s 4 -d -1 -p smac -e 9 -c 2 -a 0 -i 0 -k MAC 
- -t 34.427002160 -s 4 -d -1 -p smac -e 9 -c 2 -a 0 -i 0 -k MAC
h -t 34.427002160 -s 4 -d -1 -p smac -e 9 -c 2 -a 0 -i 0 -k MAC
+ -t 35.841002480 -s 7 -d -1 -p smac -e 9 -c 2 -a 0 -i 0 -k MAC 
- -t 35.841002480 -s 7 -d -1 -p smac -e 9 -c 2 -a 0 -i 0 -k MAC
h -t 35.841002480 -s 7 -d -1 -p smac -e 9 -c 2 -a 0 -i 0 -k MAC
+ -t 37.273002715 -s 2 -d -1 -p smac -e 9 -c 2 -a 0 -i 0 -k MAC 
- -t 37.273002715 -s 2 -d -1 -p smac -e 9 -c 2 -a 0 -i 0 -k MAC
h -t 37.273002715 -s 2 -d -1 -p smac -e 9 -c 2 -a 0 -i 0 -k MAC
+ -t 38.703003535 -s 1 -d -1 -p smac -e 9 -c 2 -a 0 -i 0 -k MAC 
- -t 38.703003535 -s 1 -d -1 -p smac -e 9 -c 2 -a 0 -i 0 -k MAC
h -t 38.703003535 -s 1 -d -1 -p smac -e 9 -c 2 -a 0 -i 0 -k MAC
+ -t 40.157003865 -s 5 -d -1 -p smac -e 9 -c 2 -a 0 -i 0 -k MAC 
- -t 40.157003865 -s 5 -d -1 -p smac -e 9 -c 2 -a 0 -i 0 -k MAC
h -t 40.157003865 -s 5 -d -1 -p smac -e 9 -c 2 -a 0 -i 0 -k MAC
+ -t 41.586004502 -s 6 -d -1 -p smac -e 9 -c 2 -a 0 -i 0 -k MAC 
- -t 41.586004502 -s 6 -d -1 -p smac -e 9 -c 2 -a 0 -i 0 -k MAC
h -t 41.586004502 -s 6 -d -1 -p smac -e 9 -c 2 -a 0 -i 0 -k MAC
+ -t 43.007004202 -s 0 -d -1 -p smac -e 9 -c 2 -a 0 -i 0 -k MAC 
- -t 43.007004202 -s 0 -d -1 -p smac -e 9 -c 2 -a 0 -i 0 -k MAC
h -t 43.007004202 -s 0 -d -1 -p smac -e 9 -c 2 -a 0 -i 0 -k MAC
+ -t 44.454004682 -s 3 -d -1 -p smac -e 9 -c 2 -a 0 -i 0 -k MAC 
- -t 44.454004682 -s 3 -d -1 -p smac -e 9 -c 2 -a 0 -i 0 -k MAC
h -t 44.454004682 -s 3 -d -1 -p smac -e 9 -c 2 -a 0 -i 0 -k MAC
+ -t 45.866004686 -s 9 -d -1 -p smac -e 9 -c 2 -a 0 -i 0 -k MAC 
- -t 45.866004686 -s 9 -d -1 -p smac -e 9 -c 2 -a 0 -i 0 -k MAC
h -t 45.866004686 -s 9 -d -1 -p smac -e 9 -c 2 -a 0 -i 0 -k MAC
+ -t 47.316005407 -s 8 -d -1 -p smac -e 9 -c 2 -a 0 -i 0 -k MAC 
- -t 47.316005407 -s 8 -d -1 -p smac -e 9 -c 2 -a 0 -i 0 -k MAC
h -t 47.316005407 -s 8 -d -1 -p smac -e 9 -c 2 -a 0 -i 0 -k MAC
+ -t 48.747006127 -s 4 -d -1 -p smac -e 9 -c 2 -a 0 -i 0 -k MAC 
- -t 48.747006127 -s 4 -d -1 -p smac -e 9 -c 2 -a 0 -i 0 -k MAC
h -t 48.747006127 -s 4 -d -1 -p smac -e 9 -c 2 -a 0 -i 0 -k MAC
+ -t 50.000000000 -s 1 -d -1 -p cbr -e 50 -c 2 -a 0 -i 0 -k AGT 
- -t 50.000000000 -s 1 -d -1 -p cbr -e 50 -c 2 -a 0 -i 0 -k AGT
h -t 50.000000000 -s 1 -d -1 -p cbr -e 50 -c 2 -a 0 -i 0 -k AGT
+ -t 50.000000000 -s 1 -d -1 -p cbr -e 50 -c 2 -a 0 -i 0 -k RTR 
- -t 50.000000000 -s 1 -d -1 -p cbr -e 50 -c 2 -a 0 -i 0 -k RTR
h -t 50.000000000 -s 1 -d -1 -p cbr -e 50 -c 2 -a 0 -i 0 -k RTR
+ -t 50.000000000 -s 2 -d -1 -p cbr -e 50 -c 2 -a 0 -i 1 -k AGT 
- -t 50.000000000 -s 2 -d -1 -p cbr -e 50 -c 2 -a 0 -i 1 -k AGT
h -t 50.000000000 -s 2 -d -1 -p cbr -e 50 -c 2 -a 0 -i 1 -k AGT
+ -t 50.000000000 -s 2 -d -1 -p cbr -e 50 -c 2 -a 0 -i 1 -k RTR 
- -t 50.000000000 -s 2 -d -1 -p cbr -e 50 -c 2 -a 0 -i 1 -k RTR
h -t 50.000000000 -s 2 -d -1 -p cbr -e 50 -c 2 -a 0 -i 1 -k RTR
+ -t 50.000000000 -s 3 -d -1 -p cbr -e 50 -c 2 -a 0 -i 2 -k AGT 
- -t 50.000000000 -s 3 -d -1 -p cbr -e 50 -c 2 -a 0 -i 2 -k AGT
h -t 50.000000000 -s 3 -d -1 -p cbr -e 50 -c 2 -a 0 -i 2 -k AGT
+ -t 50.000000000 -s 3 -d -1 -p cbr -e 50 -c 2 -a 0 -i 2 -k RTR 
- -t 50.000000000 -s 3 -d -1 -p cbr -e 50 -c 2 -a 0 -i 2 -k RTR
h -t 50.000000000 -s 3 -d -1 -p cbr -e 50 -c 2 -a 0 -i 2 -k RTR
+ -t 50.000000000 -s 4 -d -1 -p cbr -e 50 -c 2 -a 0 -i 3 -k AGT 
- -t 50.000000000 -s 4 -d -1 -p cbr -e 50 -c 2 -a 0 -i 3 -k AGT
h -t 50.000000000 -s 4 -d -1 -p cbr -e 50 -c 2 -a 0 -i 3 -k AGT
+ -t 50.000000000 -s 4 -d -1 -p cbr -e 50 -c 2 -a 0 -i 3 -k RTR 
- -t 50.000000000 -s 4 -d -1 -p cbr -e 50 -c 2 -a 0 -i 3 -k RTR
h -t 50.000000000 -s 4 -d -1 -p cbr -e 50 -c 2 -a 0 -i 3 -k RTR
+ -t 50.000000000 -s 5 -d -1 -p cbr -e 50 -c 2 -a 0 -i 4 -k AGT 
- -t 50.000000000 -s 5 -d -1 -p cbr -e 50 -c 2 -a 0 -i 4 -k AGT
h -t 50.000000000 -s 5 -d -1 -p cbr -e 50 -c 2 -a 0 -i 4 -k AGT
+ -t 50.000000000 -s 5 -d -1 -p cbr -e 50 -c 2 -a 0 -i 4 -k RTR 
- -t 50.000000000 -s 5 -d -1 -p cbr -e 50 -c 2 -a 0 -i 4 -k RTR
h -t 50.000000000 -s 5 -d -1 -p cbr -e 50 -c 2 -a 0 -i 4 -k RTR
+ -t 50.000000000 -s 6 -d -1 -p cbr -e 50 -c 2 -a 0 -i 5 -k AGT 
- -t 50.000000000 -s 6 -d -1 -p cbr -e 50 -c 2 -a 0 -i 5 -k AGT
h -t 50.000000000 -s 6 -d -1 -p cbr -e 50 -c 2 -a 0 -i 5 -k AGT
+ -t 50.000000000 -s 6 -d -1 -p cbr -e 50 -c 2 -a 0 -i 5 -k RTR 
- -t 50.000000000 -s 6 -d -1 -p cbr -e 50 -c 2 -a 0 -i 5 -k RTR
h -t 50.000000000 -s 6 -d -1 -p cbr -e 50 -c 2 -a 0 -i 5 -k RTR
+ -t 50.000000000 -s 7 -d -1 -p cbr -e 50 -c 2 -a 0 -i 6 -k AGT 
- -t 50.000000000 -s 7 -d -1 -p cbr -e 50 -c 2 -a 0 -i 6 -k AGT
h -t 50.000000000 -s 7 -d -1 -p cbr -e 50 -c 2 -a 0 -i 6 -k AGT
+ -t 50.000000000 -s 7 -d -1 -p cbr -e 50 -c 2 -a 0 -i 6 -k RTR 
- -t 50.000000000 -s 7 -d -1 -p cbr -e 50 -c 2 -a 0 -i 6 -k RTR
h -t 50.000000000 -s 7 -d -1 -p cbr -e 50 -c 2 -a 0 -i 6 -k RTR
+ -t 50.000000000 -s 8 -d -1 -p cbr -e 50 -c 2 -a 0 -i 7 -k AGT 
- -t 50.000000000 -s 8 -d -1 -p cbr -e 50 -c 2 -a 0 -i 7 -k AGT
h -t 50.000000000 -s 8 -d -1 -p cbr -e 50 -c 2 -a 0 -i 7 -k AGT
+ -t 50.000000000 -s 8 -d -1 -p cbr -e 50 -c 2 -a 0 -i 7 -k RTR 
- -t 50.000000000 -s 8 -d -1 -p cbr -e 50 -c 2 -a 0 -i 7 -k RTR
h -t 50.000000000 -s 8 -d -1 -p cbr -e 50 -c 2 -a 0 -i 7 -k RTR
+ -t 50.000000000 -s 9 -d -1 -p cbr -e 50 -c 2 -a 0 -i 8 -k AGT 
- -t 50.000000000 -s 9 -d -1 -p cbr -e 50 -c 2 -a 0 -i 8 -k AGT
h -t 50.000000000 -s 9 -d -1 -p cbr -e 50 -c 2 -a 0 -i 8 -k AGT
+ -t 50.000000000 -s 9 -d -1 -p cbr -e 50 -c 2 -a 0 -i 8 -k RTR 
- -t 50.000000000 -s 9 -d -1 -p cbr -e 50 -c 2 -a 0 -i 8 -k RTR
h -t 50.000000000 -s 9 -d -1 -p cbr -e 50 -c 2 -a 0 -i 8 -k RTR
+ -t 50.182006447 -s 7 -d -1 -p smac -e 9 -c 2 -a 0 -i 0 -k MAC 
- -t 50.182006447 -s 7 -d -1 -p smac -e 9 -c 2 -a 0 -i 0 -k MAC
h -t 50.182006447 -s 7 -d -1 -p smac -e 9 -c 2 -a 0 -i 0 -k MAC
+ -t 50.223206700 -s 9 -d -1 -p ARP -e 28 -c 2 -a 0 -i 0 -k MAC 
- -t 50.223206700 -s 9 -d -1 -p ARP -e 28 -c 2 -a 0 -i 0 -k MAC
h -t 50.223206700 -s 9 -d -1 -p ARP -e 28 -c 2 -a 0 -i 0 -k MAC
r -t 50.266206954 -s 7 -d -1 -p ARP -e 28 -c 2 -a 0 -i 0 -k MAC
r -t 50.266206986 -s 5 -d -1 -p ARP -e 28 -c 2 -a 0 -i 0 -k MAC
r -t 50.266207038 -s 2 -d -1 -p ARP -e 28 -c 2 -a 0 -i 0 -k MAC
r -t 50.266207184 -s 0 -d -1 -p ARP -e 28 -c 2 -a 0 -i 0 -k MAC
r -t 50.266207258 -s 4 -d -1 -p ARP -e 28 -c 2 -a 0 -i 0 -k MAC
r -t 50.266207314 -s 1 -d -1 -p ARP -e 28 -c 2 -a 0 -i 0 -k MAC
r -t 50.266207421 -s 8 -d -1 -p ARP -e 28 -c 2 -a 0 -i 0 -k MAC
r -t 50.266207452 -s 6 -d -1 -p ARP -e 28 -c 2 -a 0 -i 0 -k MAC
r -t 50.266207660 -s 3 -d -1 -p ARP -e 28 -c 2 -a 0 -i 0 -k MAC
+ -t 51.610006681 -s 2 -d -1 -p smac -e 9 -c 2 -a 0 -i 0 -k MAC 
- -t 51.610006681 -s 2 -d -1 -p smac -e 9 -c 2 -a 0 -i 0 -k MAC
h -t 51.610006681 -s 2 -d -1 -p smac -e 9 -c 2 -a 0 -i 0 -k MAC
+ -t 51.657207659 -s 3 -d -1 -p ARP -e 28 -c 2 -a 0 -i 0 -k MAC 
- -t 51.657207659 -s 3 -d -1 -p ARP -e 28 -c 2 -a 0 -i 0 -k MAC
h -t 51.657207659 -s 3 -d -1 -p ARP -e 28 -c 2 -a 0 -i 0 -k MAC
r -t 51.700207962 -s 8 -d -1 -p ARP -e 28 -c 2 -a 0 -i 0 -k MAC
r -t 51.700207988 -s 6 -d -1 -p ARP -e 28 -c 2 -a 0 -i 0 -k MAC
r -t 51.700208138 -s 0 -d -1 -p ARP -e 28 -c 2 -a 0 -i 0 -k MAC
r -t 51.700208217 -s 1 -d -1 -p ARP -e 28 -c 2 -a 0 -i 0 -k MAC
r -t 51.700208417 -s 5 -d -1 -p ARP -e 28 -c 2 -a 0 -i 0 -k MAC
r -t 51.700208437 -s 4 -d -1 -p ARP -e 28 -c 2 -a 0 -i 0 -k MAC
r -t 51.700208438 -s 7 -d -1 -p ARP -e 28 -c 2 -a 0 -i 0 -k MAC
r -t 51.700208618 -s 9 -d -1 -p ARP -e 28 -c 2 -a 0 -i 0 -k MAC
r -t 51.700208636 -s 2 -d -1 -p ARP -e 28 -c 2 -a 0 -i 0 -k MAC
+ -t 53.035007501 -s 1 -d -1 -p smac -e 9 -c 2 -a 0 -i 0 -k MAC 
- -t 53.035007501 -s 1 -d -1 -p smac -e 9 -c 2 -a 0 -i 0 -k MAC
h -t 53.035007501 -s 1 -d -1 -p smac -e 9 -c 2 -a 0 -i 0 -k MAC
+ -t 53.097207501 -s 1 -d -1 -p ARP -e 28 -c 2 -a 0 -i 0 -k MAC 
- -t 53.097207501 -s 1 -d -1 -p ARP -e 28 -c 2 -a 0 -i 0 -k MAC
h -t 53.097207501 -s 1 -d -1 -p ARP -e 28 -c 2 -a 0 -i 0 -k MAC
r -t 53.140207758 -s 8 -d -1 -p ARP -e 28 -c 2 -a 0 -i 0 -k MAC
r -t 53.140207832 -s 5 -d -1 -p ARP -e 28 -c 2 -a 0 -i 0 -k MAC
r -t 53.140207876 -s 0 -d -1 -p ARP -e 28 -c 2 -a 0 -i 0 -k MAC
r -t 53.140208059 -s 3 -d -1 -p ARP -e 28 -c 2 -a 0 -i 0 -k MAC
r -t 53.140208089 -s 7 -d -1 -p ARP -e 28 -c 2 -a 0 -i 0 -k MAC
r -t 53.140208096 -s 6 -d -1 -p ARP -e 28 -c 2 -a 0 -i 0 -k MAC
r -t 53.140208115 -s 9 -d -1 -p ARP -e 28 -c 2 -a 0 -i 0 -k MAC
r -t 53.140208311 -s 4 -d -1 -p ARP -e 28 -c 2 -a 0 -i 0 -k MAC
r -t 53.140208321 -s 2 -d -1 -p ARP -e 28 -c 2 -a 0 -i 0 -k MAC
+ -t 54.465007832 -s 5 -d -1 -p smac -e 9 -c 2 -a 0 -i 0 -k MAC 
- -t 54.465007832 -s 5 -d -1 -p smac -e 9 -c 2 -a 0 -i 0 -k MAC
h -t 54.465007832 -s 5 -d -1 -p smac -e 9 -c 2 -a 0 -i 0 -k MAC
+ -t 54.531208376 -s 2 -d -1 -p ARP -e 28 -c 2 -a 0 -i 0 -k MAC 
- -t 54.531208376 -s 2 -d -1 -p ARP -e 28 -c 2 -a 0 -i 0 -k MAC
h -t 54.531208376 -s 2 -d -1 -p ARP -e 28 -c 2 -a 0 -i 0 -k MAC
r -t 54.574208610 -s 7 -d -1 -p ARP -e 28 -c 2 -a 0 -i 0 -k MAC
r -t 54.574208684 -s 4 -d -1 -p ARP -e 28 -c 2 -a 0 -i 0 -k MAC
r -t 54.574208713 -s 9 -d -1 -p ARP -e 28 -c 2 -a 0 -i 0 -k MAC
r -t 54.574208907 -s 0 -d -1 -p ARP -e 28 -c 2 -a 0 -i 0 -k MAC
r -t 54.574208920 -s 5 -d -1 -p ARP -e 28 -c 2 -a 0 -i 0 -k MAC
r -t 54.574209061 -s 6 -d -1 -p ARP -e 28 -c 2 -a 0 -i 0 -k MAC
r -t 54.574209196 -s 1 -d -1 -p ARP -e 28 -c 2 -a 0 -i 0 -k MAC
r -t 54.574209203 -s 8 -d -1 -p ARP -e 28 -c 2 -a 0 -i 0 -k MAC
r -t 54.574209353 -s 3 -d -1 -p ARP -e 28 -c 2 -a 0 -i 0 -k MAC
+ -t 55.764982502 -s 8 -d -1 -p cbr -e 50 -c 2 -a 0 -i 9 -k AGT 
- -t 55.764982502 -s 8 -d -1 -p cbr -e 50 -c 2 -a 0 -i 9 -k AGT
h -t 55.764982502 -s 8 -d -1 -p cbr -e 50 -c 2 -a 0 -i 9 -k AGT
+ -t 55.764982502 -s 8 -d -1 -p cbr -e 50 -c 2 -a 0 -i 9 -k RTR 
- -t 55.764982502 -s 8 -d -1 -p cbr -e 50 -c 2 -a 0 -i 9 -k RTR
h -t 55.764982502 -s 8 -d -1 -p cbr -e 50 -c 2 -a 0 -i 9 -k RTR
d -t 55.764982502 -s 8 -d -1 -p cbr -e 50 -c 2 -a 0 -i 7 -k IFQ
+ -t 55.850487183 -s 5 -d -1 -p cbr -e 50 -c 2 -a 0 -i 10 -k AGT 
- -t 55.850487183 -s 5 -d -1 -p cbr -e 50 -c 2 -a 0 -i 10 -k AGT
h -t 55.850487183 -s 5 -d -1 -p cbr -e 50 -c 2 -a 0 -i 10 -k AGT
+ -t 55.850487183 -s 5 -d -1 -p cbr -e 50 -c 2 -a 0 -i 10 -k RTR 
- -t 55.850487183 -s 5 -d -1 -p cbr -e 50 -c 2 -a 0 -i 10 -k RTR
h -t 55.850487183 -s 5 -d -1 -p cbr -e 50 -c 2 -a 0 -i 10 -k RTR
d -t 55.850487183 -s 5 -d -1 -p cbr -e 50 -c 2 -a 0 -i 4 -k IFQ
+ -t 55.907008469 -s 6 -d -1 -p smac -e 9 -c 2 -a 0 -i 0 -k MAC 
- -t 55.907008469 -s 6 -d -1 -p smac -e 9 -c 2 -a 0 -i 0 -k MAC
h -t 55.907008469 -s 6 -d -1 -p smac -e 9 -c 2 -a 0 -i 0 -k MAC
+ -t 55.981155798 -s 4 -d -1 -p cbr -e 50 -c 2 -a 0 -i 11 -k AGT 
- -t 55.981155798 -s 4 -d -1 -p cbr -e 50 -c 2 -a 0 -i 11 -k AGT
h -t 55.981155798 -s 4 -d -1 -p cbr -e 50 -c 2 -a 0 -i 11 -k AGT
+ -t 55.981155798 -s 4 -d -1 -p cbr -e 50 -c 2 -a 0 -i 11 -k RTR 
- -t 55.981155798 -s 4 -d -1 -p cbr -e 50 -c 2 -a 0 -i 11 -k RTR
h -t 55.981155798 -s 4 -d -1 -p cbr -e 50 -c 2 -a 0 -i 11 -k RTR
d -t 55.981155798 -s 4 -d -1 -p cbr -e 50 -c 2 -a 0 -i 3 -k IFQ
+ -t 55.985208769 -s 0 -d -1 -p smac -e 10 -c 2 -a 0 -i 0 -k MAC 
- -t 55.985208769 -s 0 -d -1 -p smac -e 10 -c 2 -a 0 -i 0 -k MAC
h -t 55.985208769 -s 0 -d -1 -p smac -e 10 -c 2 -a 0 -i 0 -k MAC
+ -t 55.996209252 -s 9 -d -1 -p smac -e 10 -c 2 -a 0 -i 0 -k MAC 
- -t 55.996209252 -s 9 -d -1 -p smac -e 10 -c 2 -a 0 -i 0 -k MAC
h -t 55.996209252 -s 9 -d -1 -p smac -e 10 -c 2 -a 0 -i 0 -k MAC
+ -t 56.007209735 -s 0 -d -1 -p ARP -e 28 -c 2 -a 0 -i 0 -k MAC 
- -t 56.007209735 -s 0 -d -1 -p ARP -e 28 -c 2 -a 0 -i 0 -k MAC
h -t 56.007209735 -s 0 -d -1 -p ARP -e 28 -c 2 -a 0 -i 0 -k MAC
+ -t 56.050210219 -s 9 -d -1 -p smac -e 10 -c 2 -a 0 -i 0 -k MAC 
- -t 56.050210219 -s 9 -d -1 -p smac -e 10 -c 2 -a 0 -i 0 -k MAC
h -t 56.050210219 -s 9 -d -1 -p smac -e 10 -c 2 -a 0 -i 0 -k MAC
r -t 56.050210219 -s 9 -d -1 -p ARP -e 28 -c 2 -a 0 -i 0 -k MAC
+ -t 57.346008769 -s 0 -d -1 -p smac -e 9 -c 2 -a 0 -i 0 -k MAC 
- -t 57.346008769 -s 0 -d -1 -p smac -e 9 -c 2 -a 0 -i 0 -k MAC
h -t 57.346008769 -s 0 -d -1 -p smac -e 9 -c 2 -a 0 -i 0 -k MAC
+ -t 57.392208769 -s 0 -d -1 -p smac -e 10 -c 2 -a 0 -i 0 -k MAC 
- -t 57.392208769 -s 0 -d -1 -p smac -e 10 -c 2 -a 0 -i 0 -k MAC
h -t 57.392208769 -s 0 -d -1 -p smac -e 10 -c 2 -a 0 -i 0 -k MAC
+ -t 57.403209248 -s 3 -d -1 -p smac -e 10 -c 2 -a 0 -i 0 -k MAC 
- -t 57.403209248 -s 3 -d -1 -p smac -e 10 -c 2 -a 0 -i 0 -k MAC
h -t 57.403209248 -s 3 -d -1 -p smac -e 10 -c 2 -a 0 -i 0 -k MAC
+ -t 57.414209727 -s 0 -d -1 -p ARP -e 28 -c 2 -a 0 -i 0 -k MAC 
- -t 57.414209727 -s 0 -d -1 -p ARP -e 28 -c 2 -a 0 -i 0 -k MAC
h -t 57.414209727 -s 0 -d -1 -p ARP -e 28 -c 2 -a 0 -i 0 -k MAC
+ -t 57.457210207 -s 3 -d -1 -p smac -e 10 -c 2 -a 0 -i 0 -k MAC 
- -t 57.457210207 -s 3 -d -1 -p smac -e 10 -c 2 -a 0 -i 0 -k MAC
h -t 57.457210207 -s 3 -d -1 -p smac -e 10 -c 2 -a 0 -i 0 -k MAC
r -t 57.457210207 -s 3 -d -1 -p ARP -e 28 -c 2 -a 0 -i 0 -k MAC
+ -t 57.577536438 -s 2 -d -1 -p cbr -e 50 -c 2 -a 0 -i 12 -k AGT 
- -t 57.577536438 -s 2 -d -1 -p cbr -e 50 -c 2 -a 0 -i 12 -k AGT
h -t 57.577536438 -s 2 -d -1 -p cbr -e 50 -c 2 -a 0 -i 12 -k AGT
+ -t 57.577536438 -s 2 -d -1 -p cbr -e 50 -c 2 -a 0 -i 12 -k RTR 
- -t 57.577536438 -s 2 -d -1 -p cbr -e 50 -c 2 -a 0 -i 12 -k RTR
h -t 57.577536438 -s 2 -d -1 -p cbr -e 50 -c 2 -a 0 -i 12 -k RTR
d -t 57.577536438 -s 2 -d -1 -p cbr -e 50 -c 2 -a 0 -i 1 -k IFQ
+ -t 58.722439030 -s 3 -d -1 -p cbr -e 50 -c 2 -a 0 -i 13 -k AGT 
- -t 58.722439030 -s 3 -d -1 -p cbr -e 50 -c 2 -a 0 -i 13 -k AGT
h -t 58.722439030 -s 3 -d -1 -p cbr -e 50 -c 2 -a 0 -i 13 -k AGT
+ -t 58.722439030 -s 3 -d -1 -p cbr -e 50 -c 2 -a 0 -i 13 -k RTR 
- -t 58.722439030 -s 3 -d -1 -p cbr -e 50 -c 2 -a 0 -i 13 -k RTR
h -t 58.722439030 -s 3 -d -1 -p cbr -e 50 -c 2 -a 0 -i 13 -k RTR
+ -t 58.789009248 -s 3 -d -1 -p smac -e 9 -c 2 -a 0 -i 0 -k MAC 
- -t 58.789009248 -s 3 -d -1 -p smac -e 9 -c 2 -a 0 -i 0 -k MAC
h -t 58.789009248 -s 3 -d -1 -p smac -e 9 -c 2 -a 0 -i 0 -k MAC
+ -t 58.833210006 -s 5 -d -1 -p ARP -e 28 -c 2 -a 0 -i 0 -k MAC 
- -t 58.833210006 -s 5 -d -1 -p ARP -e 28 -c 2 -a 0 -i 0 -k MAC
h -t 58.833210006 -s 5 -d -1 -p ARP -e 28 -c 2 -a 0 -i 0 -k MAC
r -t 58.876210291 -s 9 -d -1 -p ARP -e 28 -c 2 -a 0 -i 0 -k MAC
r -t 58.876210337 -s 1 -d -1 -p ARP -e 28 -c 2 -a 0 -i 0 -k MAC
r -t 58.876210343 -s 0 -d -1 -p ARP -e 28 -c 2 -a 0 -i 0 -k MAC
r -t 58.876210345 -s 7 -d -1 -p ARP -e 28 -c 2 -a 0 -i 0 -k MAC
r -t 58.876210486 -s 8 -d -1 -p ARP -e 28 -c 2 -a 0 -i 0 -k MAC
r -t 58.876210550 -s 2 -d -1 -p ARP -e 28 -c 2 -a 0 -i 0 -k MAC
r -t 58.876210643 -s 6 -d -1 -p ARP -e 28 -c 2 -a 0 -i 0 -k MAC
r -t 58.876210645 -s 4 -d -1 -p ARP -e 28 -c 2 -a 0 -i 0 -k MAC
r -t 58.876210764 -s 3 -d -1 -p ARP -e 28 -c 2 -a 0 -i 0 -k MAC
+ -t 59.428819714 -s 9 -d -1 -p cbr -e 50 -c 2 -a 0 -i 14 -k AGT 
- -t 59.428819714 -s 9 -d -1 -p cbr -e 50 -c 2 -a 0 -i 14 -k AGT
h -t 59.428819714 -s 9 -d -1 -p cbr -e 50 -c 2 -a 0 -i 14 -k AGT
+ -t 59.428819714 -s 9 -d -1 -p cbr -e 50 -c 2 -a 0 -i 14 -k RTR 
- -t 59.428819714 -s 9 -d -1 -p cbr -e 50 -c 2 -a 0 -i 14 -k RTR
h -t 59.428819714 -s 9 -d -1 -p cbr -e 50 -c 2 -a 0 -i 14 -k RTR
+ -t 59.692033994 -s 1 -d -1 -p cbr -e 50 -c 2 -a 0 -i 15 -k AGT 
- -t 59.692033994 -s 1 -d -1 -p cbr -e 50 -c 2 -a 0 -i 15 -k AGT
h -t 59.692033994 -s 1 -d -1 -p cbr -e 50 -c 2 -a 0 -i 15 -k AGT
+ -t 59.692033994 -s 1 -d -1 -p cbr -e 50 -c 2 -a 0 -i 15 -k RTR 
- -t 59.692033994 -s 1 -d -1 -p cbr -e 50 -c 2 -a 0 -i 15 -k RTR
h -t 59.692033994 -s 1 -d -1 -p cbr -e 50 -c 2 -a 0 -i 15 -k RTR
d -t 59.692033994 -s 1 -d -1 -p cbr -e 50 -c 2 -a 0 -i 0 -k IFQ
+ -t 59.757165175 -s 6 -d -1 -p cbr -e 50 -c 2 -a 0 -i 16 -k AGT 
- -t 59.757165175 -s 6 -d -1 -p cbr -e 50 -c 2 -a 0 -i 16 -k AGT
h -t 59.757165175 -s 6 -d -1 -p cbr -e 50 -c 2 -a 0 -i 16 -k AGT
+ -t 59.757165175 -s 6 -d -1 -p cbr -e 50 -c 2 -a 0 -i 16 -k RTR 
- -t 59.757165175 -s 6 -d -1 -p cbr -e 50 -c 2 -a 0 -i 16 -k RTR
h -t 59.757165175 -s 6 -d -1 -p cbr -e 50 -c 2 -a 0 -i 16 -k RTR
d -t 59.757165175 -s 6 -d -1 -p cbr -e 50 -c 2 -a 0 -i 5 -k IFQ
+ -t 59.847097448 -s 7 -d -1 -p cbr -e 50 -c 2 -a 0 -i 17 -k AGT 
- -t 59.847097448 -s 7 -d -1 -p cbr -e 50 -c 2 -a 0 -i 17 -k AGT
h -t 59.847097448 -s 7 -d -1 -p cbr -e 50 -c 2 -a 0 -i 17 -k AGT
+ -t 59.847097448 -s 7 -d -1 -p cbr -e 50 -c 2 -a 0 -i 17 -k RTR 
- -t 59.847097448 -s 7 -d -1 -p cbr -e 50 -c 2 -a 0 -i 17 -k RTR
h -t 59.847097448 -s 7 -d -1 -p cbr -e 50 -c 2 -a 0 -i 17 -k RTR
d -t 59.847097448 -s 7 -d -1 -p cbr -e 50 -c 2 -a 0 -i 6 -k IFQ
+ -t 60.205010208 -s 9 -d -1 -p smac -e 9 -c 2 -a 0 -i 0 -k MAC 
- -t 60.205010208 -s 9 -d -1 -p smac -e 9 -c 2 -a 0 -i 0 -k MAC
h -t 60.205010208 -s 9 -d -1 -p smac -e 9 -c 2 -a 0 -i 0 -k MAC
+ -t 60.253210821 -s 1 -d -1 -p ARP -e 28 -c 2 -a 0 -i 0 -k MAC 
- -t 60.253210821 -s 1 -d -1 -p ARP -e 28 -c 2 -a 0 -i 0 -k MAC
h -t 60.253210821 -s 1 -d -1 -p ARP -e 28 -c 2 -a 0 -i 0 -k MAC
r -t 60.296211078 -s 8 -d -1 -p ARP -e 28 -c 2 -a 0 -i 0 -k MAC
r -t 60.296211152 -s 5 -d -1 -p ARP -e 28 -c 2 -a 0 -i 0 -k MAC
r -t 60.296211196 -s 0 -d -1 -p ARP -e 28 -c 2 -a 0 -i 0 -k MAC
r -t 60.296211380 -s 3 -d -1 -p ARP -e 28 -c 2 -a 0 -i 0 -k MAC
r -t 60.296211409 -s 7 -d -1 -p ARP -e 28 -c 2 -a 0 -i 0 -k MAC
r -t 60.296211416 -s 6 -d -1 -p ARP -e 28 -c 2 -a 0 -i 0 -k MAC
r -t 60.296211435 -s 9 -d -1 -p ARP -e 28 -c 2 -a 0 -i 0 -k MAC
r -t 60.296211631 -s 4 -d -1 -p ARP -e 28 -c 2 -a 0 -i 0 -k MAC
r -t 60.296211641 -s 2 -d -1 -p ARP -e 28 -c 2 -a 0 -i 0 -k MAC
+ -t 61.635010929 -s 8 -d -1 -p smac -e 9 -c 2 -a 0 -i 0 -k MAC 
- -t 61.635010929 -s 8 -d -1 -p smac -e 9 -c 2 -a 0 -i 0 -k MAC
h -t 61.635010929 -s 8 -d -1 -p smac -e 9 -c 2 -a 0 -i 0 -k MAC
+ -t 61.685211528 -s 7 -d -1 -p ARP -e 28 -c 2 -a 0 -i 0 -k MAC 
- -t 61.685211528 -s 7 -d -1 -p ARP -e 28 -c 2 -a 0 -i 0 -k MAC
h -t 61.685211528 -s 7 -d -1 -p ARP -e 28 -c 2 -a 0 -i 0 -k MAC
r -t 61.728211762 -s 2 -d -1 -p ARP -e 28 -c 2 -a 0 -i 0 -k MAC
r -t 61.728211781 -s 9 -d -1 -p ARP -e 28 -c 2 -a 0 -i 0 -k MAC
r -t 61.728211838 -s 0 -d -1 -p ARP -e 28 -c 2 -a 0 -i 0 -k MAC
r -t 61.728211848 -s 4 -d -1 -p ARP -e 28 -c 2 -a 0 -i 0 -k MAC
r -t 61.728211867 -s 5 -d -1 -p ARP -e 28 -c 2 -a 0 -i 0 -k MAC
r -t 61.728212053 -s 6 -d -1 -p ARP -e 28 -c 2 -a 0 -i 0 -k MAC
r -t 61.728212116 -s 1 -d -1 -p ARP -e 28 -c 2 -a 0 -i 0 -k MAC
r -t 61.728212127 -s 8 -d -1 -p ARP -e 28 -c 2 -a 0 -i 0 -k MAC
r -t 61.728212308 -s 3 -d -1 -p ARP -e 28 -c 2 -a 0 -i 0 -k MAC
+ -t 62.885888347 -s 8 -d -1 -p cbr -e 50 -c 2 -a 0 -i 18 -k AGT 
- -t 62.885888347 -s 8 -d -1 -p cbr -e 50 -c 2 -a 0 -i 18 -k AGT
h -t 62.885888347 -s 8 -d -1 -p cbr -e 50 -c 2 -a 0 -i 18 -k AGT
+ -t 62.885888347 -s 8 -d -1 -p cbr -e 50 -c 2 -a 0 -i 18 -k RTR 
- -t 62.885888347 -s 8 -d -1 -p cbr -e 50 -c 2 -a 0 -i 18 -k RTR
h -t 62.885888347 -s 8 -d -1 -p cbr -e 50 -c 2 -a 0 -i 18 -k RTR
d -t 62.885888347 -s 8 -d -1 -p cbr -e 50 -c 2 -a 0 -i 9 -k IFQ
+ -t 63.075011649 -s 4 -d -1 -p smac -e 9 -c 2 -a 0 -i 0 -k MAC 
- -t 63.075011649 -s 4 -d -1 -p smac -e 9 -c 2 -a 0 -i 0 -k MAC
h -t 63.075011649 -s 4 -d -1 -p smac -e 9 -c 2 -a 0 -i 0 -k MAC
+ -t 63.123212092 -s 0 -d -1 -p smac -e 10 -c 2 -a 0 -i 0 -k MAC 
- -t 63.123212092 -s 0 -d -1 -p smac -e 10 -c 2 -a 0 -i 0 -k MAC
h -t 63.123212092 -s 0 -d -1 -p smac -e 10 -c 2 -a 0 -i 0 -k MAC
+ -t 63.134212467 -s 1 -d -1 -p smac -e 10 -c 2 -a 0 -i 0 -k MAC 
- -t 63.134212467 -s 1 -d -1 -p smac -e 10 -c 2 -a 0 -i 0 -k MAC
h -t 63.134212467 -s 1 -d -1 -p smac -e 10 -c 2 -a 0 -i 0 -k MAC
+ -t 63.145212841 -s 0 -d -1 -p ARP -e 28 -c 2 -a 0 -i 0 -k MAC 
- -t 63.145212841 -s 0 -d -1 -p ARP -e 28 -c 2 -a 0 -i 0 -k MAC
h -t 63.145212841 -s 0 -d -1 -p ARP -e 28 -c 2 -a 0 -i 0 -k MAC
+ -t 63.188213216 -s 1 -d -1 -p smac -e 10 -c 2 -a 0 -i 0 -k MAC 
- -t 63.188213216 -s 1 -d -1 -p smac -e 10 -c 2 -a 0 -i 0 -k MAC
h -t 63.188213216 -s 1 -d -1 -p smac -e 10 -c 2 -a 0 -i 0 -k MAC
r -t 63.188213216 -s 1 -d -1 -p ARP -e 28 -c 2 -a 0 -i 0 -k MAC
+ -t 63.201961211 -s 4 -d -1 -p cbr -e 50 -c 2 -a 0 -i 19 -k AGT 
- -t 63.201961211 -s 4 -d -1 -p cbr -e 50 -c 2 -a 0 -i 19 -k AGT
h -t 63.201961211 -s 4 -d -1 -p cbr -e 50 -c 2 -a 0 -i 19 -k AGT
+ -t 63.201961211 -s 4 -d -1 -p cbr -e 50 -c 2 -a 0 -i 19 -k RTR 
- -t 63.201961211 -s 4 -d -1 -p cbr -e 50 -c 2 -a 0 -i 19 -k RTR
h -t 63.201961211 -s 4 -d -1 -p cbr -e 50 -c 2 -a 0 -i 19 -k RTR
d -t 63.201961211 -s 4 -d -1 -p cbr -e 50 -c 2 -a 0 -i 11 -k IFQ
+ -t 64.513011969 -s 7 -d -1 -p smac -e 9 -c 2 -a 0 -i 0 -k MAC 
- -t 64.513011969 -s 7 -d -1 -p smac -e 9 -c 2 -a 0 -i 0 -k MAC
h -t 64.513011969 -s 7 -d -1 -p smac -e 9 -c 2 -a 0 -i 0 -k MAC
+ -t 64.555211969 -s 7 -d -1 -p ARP -e 28 -c 2 -a 0 -i 0 -k MAC 
- -t 64.555211969 -s 7 -d -1 -p ARP -e 28 -c 2 -a 0 -i 0 -k MAC
h -t 64.555211969 -s 7 -d -1 -p ARP -e 28 -c 2 -a 0 -i 0 -k MAC
r -t 64.598212203 -s 2 -d -1 -p ARP -e 28 -c 2 -a 0 -i 0 -k MAC
r -t 64.598212222 -s 9 -d -1 -p ARP -e 28 -c 2 -a 0 -i 0 -k MAC
r -t 64.598212279 -s 0 -d -1 -p ARP -e 28 -c 2 -a 0 -i 0 -k MAC
r -t 64.598212289 -s 4 -d -1 -p ARP -e 28 -c 2 -a 0 -i 0 -k MAC
r -t 64.598212308 -s 5 -d -1 -p ARP -e 28 -c 2 -a 0 -i 0 -k MAC
r -t 64.598212494 -s 6 -d -1 -p ARP -e 28 -c 2 -a 0 -i 0 -k MAC
r -t 64.598212557 -s 1 -d -1 -p ARP -e 28 -c 2 -a 0 -i 0 -k MAC
r -t 64.598212569 -s 8 -d -1 -p ARP -e 28 -c 2 -a 0 -i 0 -k MAC
r -t 64.598212749 -s 3 -d -1 -p ARP -e 28 -c 2 -a 0 -i 0 -k MAC
+ -t 64.614920658 -s 3 -d -1 -p cbr -e 50 -c 2 -a 0 -i 20 -k AGT 
- -t 64.614920658 -s 3 -d -1 -p cbr -e 50 -c 2 -a 0 -i 20 -k AGT
h -t 64.614920658 -s 3 -d -1 -p cbr -e 50 -c 2 -a 0 -i 20 -k AGT
+ -t 64.614920658 -s 3 -d -1 -p cbr -e 50 -c 2 -a 0 -i 20 -k RTR 
- -t 64.614920658 -s 3 -d -1 -p cbr -e 50 -c 2 -a 0 -i 20 -k RTR
h -t 64.614920658 -s 3 -d -1 -p cbr -e 50 -c 2 -a 0 -i 20 -k RTR
+ -t 64.859510621 -s 2 -d -1 -p cbr -e 50 -c 2 -a 0 -i 21 -k AGT 
- -t 64.859510621 -s 2 -d -1 -p cbr -e 50 -c 2 -a 0 -i 21 -k AGT
h -t 64.859510621 -s 2 -d -1 -p cbr -e 50 -c 2 -a 0 -i 21 -k AGT
+ -t 64.859510621 -s 2 -d -1 -p cbr -e 50 -c 2 -a 0 -i 21 -k RTR 
- -t 64.859510621 -s 2 -d -1 -p cbr -e 50 -c 2 -a 0 -i 21 -k RTR
h -t 64.859510621 -s 2 -d -1 -p cbr -e 50 -c 2 -a 0 -i 21 -k RTR
d -t 64.859510621 -s 2 -d -1 -p cbr -e 50 -c 2 -a 0 -i 12 -k IFQ
+ -t 65.794444011 -s 7 -d -1 -p cbr -e 50 -c 2 -a 0 -i 22 -k AGT 
- -t 65.794444011 -s 7 -d -1 -p cbr -e 50 -c 2 -a 0 -i 22 -k AGT
h -t 65.794444011 -s 7 -d -1 -p cbr -e 50 -c 2 -a 0 -i 22 -k AGT
+ -t 65.794444011 -s 7 -d -1 -p cbr -e 50 -c 2 -a 0 -i 22 -k RTR 
- -t 65.794444011 -s 7 -d -1 -p cbr -e 50 -c 2 -a 0 -i 22 -k RTR
h -t 65.794444011 -s 7 -d -1 -p cbr -e 50 -c 2 -a 0 -i 22 -k RTR
d -t 65.794444011 -s 7 -d -1 -p cbr -e 50 -c 2 -a 0 -i 17 -k IFQ
+ -t 65.938012203 -s 2 -d -1 -p smac -e 9 -c 2 -a 0 -i 0 -k MAC 
- -t 65.938012203 -s 2 -d -1 -p smac -e 9 -c 2 -a 0 -i 0 -k MAC
h -t 65.938012203 -s 2 -d -1 -p smac -e 9 -c 2 -a 0 -i 0 -k MAC
+ -t 65.987212735 -s 0 -d -1 -p smac -e 10 -c 2 -a 0 -i 0 -k MAC 
- -t 65.987212735 -s 0 -d -1 -p smac -e 10 -c 2 -a 0 -i 0 -k MAC
h -t 65.987212735 -s 0 -d -1 -p smac -e 10 -c 2 -a 0 -i 0 -k MAC
+ -t 65.987213030 -s 8 -d -1 -p ARP -e 28 -c 2 -a 0 -i 0 -k MAC 
- -t 65.987213030 -s 8 -d -1 -p ARP -e 28 -c 2 -a 0 -i 0 -k MAC
h -t 65.987213030 -s 8 -d -1 -p ARP -e 28 -c 2 -a 0 -i 0 -k MAC
d -t 66.030213287 -s 1 -d -1 -p ARP -e 28 -c 2 -a 0 -i 0 -k MAC
d -t 66.030213334 -s 3 -d -1 -p ARP -e 28 -c 2 -a 0 -i 0 -k MAC
d -t 66.030213415 -s 6 -d -1 -p ARP -e 28 -c 2 -a 0 -i 0 -k MAC
d -t 66.030213510 -s 5 -d -1 -p ARP -e 28 -c 2 -a 0 -i 0 -k MAC
d -t 66.030213750 -s 4 -d -1 -p ARP -e 28 -c 2 -a 0 -i 0 -k MAC
d -t 66.030213751 -s 9 -d -1 -p ARP -e 28 -c 2 -a 0 -i 0 -k MAC
d -t 66.030213857 -s 2 -d -1 -p ARP -e 28 -c 2 -a 0 -i 0 -k MAC
+ -t 67.370013023 -s 1 -d -1 -p smac -e 9 -c 2 -a 0 -i 0 -k MAC 
- -t 67.370013023 -s 1 -d -1 -p smac -e 9 -c 2 -a 0 -i 0 -k MAC
h -t 67.370013023 -s 1 -d -1 -p smac -e 9 -c 2 -a 0 -i 0 -k MAC
+ -t 67.423213843 -s 2 -d -1 -p ARP -e 28 -c 2 -a 0 -i 0 -k MAC 
- -t 67.423213843 -s 2 -d -1 -p ARP -e 28 -c 2 -a 0 -i 0 -k MAC
h -t 67.423213843 -s 2 -d -1 -p ARP -e 28 -c 2 -a 0 -i 0 -k MAC
+ -t 67.433669701 -s 1 -d -1 -p cbr -e 50 -c 2 -a 0 -i 23 -k AGT 
- -t 67.433669701 -s 1 -d -1 -p cbr -e 50 -c 2 -a 0 -i 23 -k AGT
h -t 67.433669701 -s 1 -d -1 -p cbr -e 50 -c 2 -a 0 -i 23 -k AGT
+ -t 67.433669701 -s 1 -d -1 -p cbr -e 50 -c 2 -a 0 -i 23 -k RTR 
- -t 67.433669701 -s 1 -d -1 -p cbr -e 50 -c 2 -a 0 -i 23 -k RTR
h -t 67.433669701 -s 1 -d -1 -p cbr -e 50 -c 2 -a 0 -i 23 -k RTR
r -t 67.466214078 -s 7 -d -1 -p ARP -e 28 -c 2 -a 0 -i 0 -k MAC
r -t 67.466214151 -s 4 -d -1 -p ARP -e 28 -c 2 -a 0 -i 0 -k MAC
r -t 67.466214181 -s 9 -d -1 -p ARP -e 28 -c 2 -a 0 -i 0 -k MAC
r -t 67.466214375 -s 0 -d -1 -p ARP -e 28 -c 2 -a 0 -i 0 -k MAC
r -t 67.466214388 -s 5 -d -1 -p ARP -e 28 -c 2 -a 0 -i 0 -k MAC
r -t 67.466214528 -s 6 -d -1 -p ARP -e 28 -c 2 -a 0 -i 0 -k MAC
r -t 67.466214664 -s 1 -d -1 -p ARP -e 28 -c 2 -a 0 -i 0 -k MAC
r -t 67.466214670 -s 8 -d -1 -p ARP -e 28 -c 2 -a 0 -i 0 -k MAC
r -t 67.466214821 -s 3 -d -1 -p ARP -e 28 -c 2 -a 0 -i 0 -k MAC
+ -t 68.368342647 -s 8 -d -1 -p cbr -e 50 -c 2 -a 0 -i 24 -k AGT 
- -t 68.368342647 -s 8 -d -1 -p cbr -e 50 -c 2 -a 0 -i 24 -k AGT
h -t 68.368342647 -s 8 -d -1 -p cbr -e 50 -c 2 -a 0 -i 24 -k AGT
+ -t 68.368342647 -s 8 -d -1 -p cbr -e 50 -c 2 -a 0 -i 24 -k RTR 
- -t 68.368342647 -s 8 -d -1 -p cbr -e 50 -c 2 -a 0 -i 24 -k RTR
h -t 68.368342647 -s 8 -d -1 -p cbr -e 50 -c 2 -a 0 -i 24 -k RTR
d -t 68.368342647 -s 8 -d -1 -p cbr -e 50 -c 2 -a 0 -i 18 -k IFQ
d -t 68.368342647 -s 8 -d -1 -p cbr -e 50 -c 2 -a 0 -i 24 -k IFQ
+ -t 68.437630058 -s 5 -d -1 -p cbr -e 50 -c 2 -a 0 -i 25 -k AGT 
- -t 68.437630058 -s 5 -d -1 -p cbr -e 50 -c 2 -a 0 -i 25 -k AGT