s 17.206000000 _5_ MAC  --- 0 SYNC 9 [0.13 5 5] [energy 1000.000000 ei 0.000 es 0.000 et 0.000 er 0.000] 
N -t 17.206000 -n 9 -e 982.791000
N -t 17.206000 -n 1 -e 982.791000
N -t 17.206000 -n 0 -e 982.791000
N -t 17.206000 -n 7 -e 982.791000
N -t 17.206000 -n 8 -e 982.791000
N -t 17.206001 -n 2 -e 982.790999
N -t 17.206001 -n 6 -e 982.790999
N -t 17.206001 -n 4 -e 982.790999
N -t 17.206001 -n 3 -e 982.790999
s 18.640000480 _8_ MAC  --- 0 SYNC 9 [0.13 8 5] [energy 982.791000 ei 17.206 es 0.000 et 0.000 er 0.003] 
N -t 18.640001 -n 1 -e 981.356999
N -t 18.640001 -n 0 -e 981.356999
N -t 18.640001 -n 3 -e 981.356999
N -t 18.640001 -n 6 -e 981.356999
N -t 18.640001 -n 5 -e 981.356999
N -t 18.640001 -n 7 -e 981.356999
N -t 18.640001 -n 4 -e 981.356999
N -t 18.640001 -n 9 -e 981.356999
N -t 18.640001 -n 2 -e 981.356999
s 20.075000639 _4_ MAC  --- 0 SYNC 9 [0.13 4 5] [energy 981.356999 ei 18.637 es 0.000 et 0.000 er 0.006] 
N -t 20.075001 -n 2 -e 979.921999
N -t 20.075001 -n 7 -e 979.921999
N -t 20.075001 -n 0 -e 979.921999
N -t 20.075001 -n 6 -e 979.921999
N -t 20.075001 -n 9 -e 979.921999
N -t 20.075001 -n 5 -e 979.921999
N -t 20.075001 -n 8 -e 979.921999
N -t 20.075001 -n 3 -e 979.921999
N -t 20.075001 -n 1 -e 979.921999
s 21.505000339 _7_ MAC  --- 0 SYNC 9 [0.13 7 5] [energy 979.921999 ei 20.069 es 0.000 et 0.000 er 0.009] 
N -t 21.505001 -n 2 -e 978.491999
N -t 21.505001 -n 9 -e 978.491999
N -t 21.505001 -n 0 -e 978.491999
N -t 21.505001 -n 4 -e 978.491999
N -t 21.505001 -n 5 -e 978.491999
N -t 21.505001 -n 6 -e 978.491999
N -t 21.505001 -n 1 -e 978.491999
N -t 21.505001 -n 8 -e 978.491999
N -t 21.505001 -n 3 -e 978.491999
s 22.941000544 _2_ MAC  --- 0 SYNC 9 [0.13 2 5] [energy 978.491999 ei 21.496 es 0.000 et 0.000 er 0.012] 
N -t 22.941001 -n 7 -e 977.055999
N -t 22.941001 -n 4 -e 977.055999
N -t 22.941001 -n 9 -e 977.055999
N -t 22.941001 -n 0 -e 977.055999
N -t 22.941001 -n 5 -e 977.055999
N -t 22.941001 -n 6 -e 977.055999
N -t 22.941001 -n 1 -e 977.055999
N -t 22.941001 -n 8 -e 977.055999
N -t 22.941002 -n 3 -e 977.055998
s 24.373000331 _1_ MAC  --- 0 SYNC 9 [0.13 1 5] [energy 977.055999 ei 22.929 es 0.000 et 0.000 er 0.015] 
N -t 24.373001 -n 8 -e 975.623999
N -t 24.373001 -n 5 -e 975.623999
N -t 24.373001 -n 0 -e 975.623999
N -t 24.373001 -n 3 -e 975.623999
N -t 24.373001 -n 7 -e 975.623999
N -t 24.373001 -n 6 -e 975.623999
N -t 24.373001 -n 9 -e 975.623999
N -t 24.373001 -n 4 -e 975.623999
N -t 24.373001 -n 2 -e 975.623999
s 25.805000960 _5_ MAC  --- 0 SYNC 9 [0.13 5 8] [energy 975.623999 ei 24.358 es 0.000 et 0.003 er 0.015] 
N -t 25.805001 -n 9 -e 974.191999
N -t 25.805001 -n 1 -e 974.191999
N -t 25.805001 -n 0 -e 974.191999
N -t 25.805001 -n 7 -e 974.191999
N -t 25.805001 -n 8 -e 974.191999
N -t 25.805002 -n 2 -e 974.191998
N -t 25.805002 -n 6 -e 974.191998
N -t 25.805002 -n 4 -e 974.191998
N -t 25.805002 -n 3 -e 974.191998
s 27.238001597 _6_ MAC  --- 0 SYNC 9 [0.13 6 5] [energy 974.191998 ei 25.787 es 0.000 et 0.000 er 0.021] 
s 27.238001718 _3_ MAC  --- 0 SYNC 9 [0.13 3 5] [energy 974.191998 ei 25.787 es 0.000 et 0.000 er 0.021] 
N -t 27.238002 -n 0 -e 972.758998
N -t 27.238002 -n 3 -e 972.758998
N -t 27.238002 -n 8 -e 972.758998
N -t 27.238002 -n 8 -e 972.758998
D 27.238002022 _8_ MAC  COL 0 SYNC 9 [0.13 6 5] [energy 972.758998 ei 27.217 es 0.000 et 0.003 er 0.021] 
N -t 27.238002 -n 6 -e 972.758998
N -t 27.238002 -n 4 -e 972.758998
N -t 27.238002 -n 7 -e 972.758998
N -t 27.238002 -n 1 -e 972.758998
N -t 27.238002 -n 0 -e 972.758998
D 27.238002197 _0_ MAC  COL 0 SYNC 9 [0.13 6 5] [energy 972.758998 ei 27.217 es 0.000 et 0.000 er 0.024] 
N -t 27.238002 -n 5 -e 972.758998
N -t 27.238002 -n 1 -e 972.758998
D 27.238002276 _1_ MAC  COL 0 SYNC 9 [0.13 6 5] [energy 972.758998 ei 27.217 es 0.000 et 0.003 er 0.021] 
N -t 27.238002 -n 2 -e 972.758998
N -t 27.238002 -n 9 -e 972.758998
N -t 27.238002 -n 5 -e 972.758998
D 27.238002476 _5_ MAC  COL 0 SYNC 9 [0.13 6 5] [energy 972.758998 ei 27.217 es 0.000 et 0.006 er 0.018] 
N -t 27.238002 -n 4 -e 972.758998
D 27.238002497 _4_ MAC  COL 0 SYNC 9 [0.13 6 5] [energy 972.758998 ei 27.217 es 0.000 et 0.003 er 0.021] 
N -t 27.238002 -n 7 -e 972.758998
D 27.238002498 _7_ MAC  COL 0 SYNC 9 [0.13 6 5] [energy 972.758998 ei 27.217 es 0.000 et 0.003 er 0.021] 
N -t 27.238003 -n 9 -e 972.758997
D 27.238002678 _9_ MAC  COL 0 SYNC 9 [0.13 6 5] [energy 972.758997 ei 27.217 es 0.000 et 0.000 er 0.024] 
N -t 27.238003 -n 2 -e 972.758997
D 27.238002695 _2_ MAC  COL 0 SYNC 9 [0.13 6 5] [energy 972.758997 ei 27.217 es 0.000 et 0.003 er 0.021] 
D 27.241002022 _8_ MAC  COL 0 SYNC 9 [0.13 3 5] [energy 972.758998 ei 27.217 es 0.000 et 0.003 er 0.021] 
D 27.241002197 _0_ MAC  COL 0 SYNC 9 [0.13 3 5] [energy 972.758998 ei 27.217 es 0.000 et 0.000 er 0.024] 
D 27.241002276 _1_ MAC  COL 0 SYNC 9 [0.13 3 5] [energy 972.758998 ei 27.217 es 0.000 et 0.003 er 0.021] 
D 27.241002476 _5_ MAC  COL 0 SYNC 9 [0.13 3 5] [energy 972.758998 ei 27.217 es 0.000 et 0.006 er 0.018] 
D 27.241002497 _4_ MAC  COL 0 SYNC 9 [0.13 3 5] [energy 972.758998 ei 27.217 es 0.000 et 0.003 er 0.021] 
D 27.241002498 _7_ MAC  COL 0 SYNC 9 [0.13 3 5] [energy 972.758998 ei 27.217 es 0.000 et 0.003 er 0.021] 
D 27.241002678 _9_ MAC  COL 0 SYNC 9 [0.13 3 5] [energy 972.758997 ei 27.217 es 0.000 et 0.000 er 0.024] 
D 27.241002695 _2_ MAC  COL 0 SYNC 9 [0.13 3 5] [energy 972.758997 ei 27.217 es 0.000 et 0.003 er 0.021] 
s 28.677001297 _0_ MAC  --- 0 SYNC 9 [0.12 0 5] [energy 972.758998 ei 27.217 es 0.000 et 0.000 er 0.024] 
N -t 28.677002 -n 8 -e 971.319998
N -t 28.677002 -n 6 -e 971.319998
N -t 28.677002 -n 7 -e 971.319998
N -t 28.677002 -n 5 -e 971.319998
N -t 28.677002 -n 1 -e 971.319998
N -t 28.677002 -n 4 -e 971.319998
N -t 28.677002 -n 3 -e 971.319998
N -t 28.677002 -n 9 -e 971.319998
N -t 28.677002 -n 2 -e 971.319998
s 30.109001245 _9_ MAC  --- 0 SYNC 9 [0.12 9 5] [energy 971.319998 ei 28.653 es 0.000 et 0.000 er 0.027] 
N -t 30.109001 -n 7 -e 969.887999
N -t 30.109002 -n 5 -e 969.887998
N -t 30.109002 -n 2 -e 969.887998
N -t 30.109002 -n 0 -e 969.887998
N -t 30.109002 -n 4 -e 969.887998
N -t 30.109002 -n 1 -e 969.887998
N -t 30.109002 -n 8 -e 969.887998
N -t 30.109002 -n 6 -e 969.887998
N -t 30.109002 -n 3 -e 969.887998
s 32.987001440 _8_ MAC  --- 0 SYNC 9 [0.11 8 5] [energy 969.887998 ei 30.082 es 0.000 et 0.003 er 0.027] 
N -t 32.987002 -n 1 -e 967.009998
N -t 32.987002 -n 0 -e 967.009998
N -t 32.987002 -n 3 -e 967.009998
N -t 32.987002 -n 6 -e 967.009998
N -t 32.987002 -n 5 -e 967.009998
N -t 32.987002 -n 7 -e 967.009998
N -t 32.987002 -n 4 -e 967.009998
N -t 32.987002 -n 9 -e 967.009998
N -t 32.987002 -n 2 -e 967.009998
N -t 33.102201 -n 8 -e 966.896799
N -t 34.392001 -n 8 -e 966.894509
s 34.427002160 _4_ MAC  --- 0 SYNC 9 [0.11 4 5] [energy 967.009998 ei 32.957 es 0.000 et 0.003 er 0.030] 
N -t 34.427002 -n 2 -e 965.569998
N -t 34.427002 -n 7 -e 965.569998
N -t 34.427003 -n 0 -e 965.569997
N -t 34.427003 -n 6 -e 965.569997
N -t 34.427003 -n 9 -e 965.569997
N -t 34.427003 -n 5 -e 965.569997
N -t 34.427003 -n 8 -e 966.856507
N -t 34.427003 -n 3 -e 965.569997
N -t 34.427003 -n 1 -e 965.569997
N -t 34.535202 -n 4 -e 965.463798
N -t 34.535203 -n 8 -e 966.750307
N -t 35.825002 -n 4 -e 965.461508
N -t 35.825003 -n 8 -e 966.748018
s 35.841002480 _7_ MAC  --- 0 SYNC 9 [0.12 7 5] [energy 965.569998 ei 34.394 es 0.000 et 0.003 er 0.033] 
N -t 35.841003 -n 2 -e 964.155997
N -t 35.841003 -n 9 -e 964.155997
N -t 35.841003 -n 0 -e 964.155997
N -t 35.841003 -n 4 -e 965.442507
N -t 35.841003 -n 5 -e 964.155997
N -t 35.841003 -n 6 -e 964.155997
N -t 35.841003 -n 1 -e 964.155997
N -t 35.841003 -n 8 -e 966.729017
N -t 35.841003 -n 3 -e 964.155997
N -t 35.968202 -n 7 -e 964.030798
N -t 35.968203 -n 4 -e 965.317307
N -t 35.968203 -n 8 -e 966.603817
N -t 37.258002 -n 7 -e 964.028508
N -t 37.258003 -n 4 -e 965.315018
N -t 37.258003 -n 8 -e 966.601528
s 37.273002715 _2_ MAC  --- 0 SYNC 9 [0.13 2 5] [energy 964.155997 ei 35.805 es 0.000 et 0.003 er 0.036] 
N -t 37.273003 -n 7 -e 964.010507
N -t 37.273003 -n 4 -e 965.297017
N -t 37.273003 -n 9 -e 962.723997
N -t 37.273003 -n 0 -e 962.723997
N -t 37.273003 -n 5 -e 962.723997
N -t 37.273003 -n 6 -e 962.723997
N -t 37.273004 -n 1 -e 962.723996
N -t 37.273004 -n 8 -e 966.583527
N -t 37.273004 -n 3 -e 962.723996
N -t 37.401203 -n 2 -e 962.597797
N -t 37.401203 -n 7 -e 963.884307
N -t 37.401203 -n 4 -e 965.170817
N -t 37.401204 -n 8 -e 966.457327
N -t 38.691003 -n 2 -e 962.595507
N -t 38.691003 -n 7 -e 963.882017
N -t 38.691003 -n 4 -e 965.168528
N -t 38.691004 -n 8 -e 966.455037
s 38.703003535 _1_ MAC  --- 0 SYNC 9 [0.13 1 5] [energy 962.723996 ei 37.234 es 0.000 et 0.003 er 0.039] 
N -t 38.703004 -n 8 -e 966.440037
N -t 38.703004 -n 5 -e 961.293996
N -t 38.703004 -n 0 -e 961.293996
N -t 38.703004 -n 3 -e 961.293996
N -t 38.703004 -n 7 -e 963.867016
N -t 38.703004 -n 6 -e 961.293996
N -t 38.703004 -n 9 -e 961.293996
N -t 38.703004 -n 4 -e 965.153526
N -t 38.703004 -n 2 -e 962.580506
N -t 38.834204 -n 1 -e 961.164796
N -t 38.834204 -n 8 -e 966.310837
N -t 38.834204 -n 7 -e 963.737816
N -t 38.834204 -n 4 -e 965.024326
N -t 38.834204 -n 2 -e 962.451306
N -t 40.124004 -n 1 -e 961.162507
N -t 40.124004 -n 8 -e 966.308547
N -t 40.124004 -n 7 -e 963.735526
N -t 40.124004 -n 4 -e 965.022036
N -t 40.124004 -n 2 -e 962.449016
s 40.157003865 _5_ MAC  --- 0 SYNC 9 [0.11 5 8] [energy 961.293996 ei 38.661 es 0.000 et 0.006 er 0.039] 
N -t 40.157004 -n 9 -e 959.839996
N -t 40.157004 -n 1 -e 961.126506
N -t 40.157004 -n 0 -e 959.839996
N -t 40.157004 -n 7 -e 963.699526
N -t 40.157004 -n 8 -e 966.272547
N -t 40.157004 -n 2 -e 962.413016
N -t 40.157005 -n 6 -e 959.839995
N -t 40.157005 -n 4 -e 964.986036
N -t 40.157005 -n 3 -e 959.839995
N -t 40.267204 -n 5 -e 959.731796
N -t 40.267204 -n 1 -e 961.018306
N -t 40.267204 -n 7 -e 963.591326
N -t 40.267204 -n 8 -e 966.164347
N -t 40.267204 -n 2 -e 962.304816
N -t 40.267205 -n 4 -e 964.877836
N -t 41.000000 -n 1 -e 961.017573
N -t 41.000000 -n 2 -e 962.304083
N -t 41.000000 -n 4 -e 964.877104
N -t 41.000000 -n 5 -e 959.731063
N -t 41.000000 -n 7 -e 963.590594
N -t 41.000000 -n 8 -e 966.163614
N -t 41.557004 -n 5 -e 959.729506
N -t 41.557004 -n 1 -e 961.016016
N -t 41.557004 -n 7 -e 963.589037
N -t 41.557004 -n 8 -e 966.162057
N -t 41.557004 -n 2 -e 962.302526
N -t 41.557005 -n 4 -e 964.875546
s 41.586004502 _6_ MAC  --- 0 SYNC 9 [0.11 6 5] [energy 959.839995 ei 40.112 es 0.000 et 0.003 er 0.045] 
N -t 41.586005 -n 0 -e 958.410995
N -t 41.586005 -n 3 -e 958.410995
N -t 41.586005 -n 8 -e 966.130056
N -t 41.586005 -n 4 -e 964.843546
N -t 41.586005 -n 7 -e 963.557036
N -t 41.586005 -n 1 -e 960.984015
N -t 41.586005 -n 5 -e 959.697505
N -t 41.586005 -n 2 -e 962.270525
N -t 41.586005 -n 9 -e 958.410995
N -t 41.700204 -n 5 -e 959.585306
N -t 41.700204 -n 1 -e 960.871816
N -t 41.700204 -n 7 -e 963.444837
N -t 41.700204 -n 8 -e 966.017857
N -t 41.700204 -n 2 -e 962.158326
N -t 41.700205 -n 6 -e 958.298795
N -t 41.700205 -n 4 -e 964.731346
N -t 41.700205 -n 3 -e 958.298795
N -t 42.990004 -n 5 -e 959.583017
N -t 42.990004 -n 1 -e 960.869526
N -t 42.990004 -n 7 -e 963.442547
N -t 42.990004 -n 8 -e 966.015567
N -t 42.990004 -n 2 -e 962.156036
N -t 42.990005 -n 6 -e 958.296506
N -t 42.990005 -n 4 -e 964.729057
N -t 42.990005 -n 3 -e 958.296506
s 43.007004202 _0_ MAC  --- 0 SYNC 9 [0.12 0 5] [energy 958.410995 ei 41.538 es 0.000 et 0.003 er 0.048] 
N -t 43.007004 -n 8 -e 965.995567
N -t 43.007005 -n 6 -e 958.276506
N -t 43.007005 -n 7 -e 963.422546
N -t 43.007005 -n 5 -e 959.563016
N -t 43.007005 -n 1 -e 960.849526
N -t 43.007005 -n 4 -e 964.709057
N -t 43.007005 -n 3 -e 958.276506
N -t 43.007005 -n 9 -e 956.989995
N -t 43.007005 -n 2 -e 962.136036
N -t 43.133204 -n 0 -e 956.865796
N -t 43.133204 -n 8 -e 965.871367
N -t 43.133205 -n 6 -e 958.152306
N -t 43.133205 -n 7 -e 963.298346
N -t 43.133205 -n 5 -e 959.438816
N -t 43.133205 -n 1 -e 960.725326
N -t 43.133205 -n 4 -e 964.584857
N -t 43.133205 -n 3 -e 958.152306
N -t 43.133205 -n 2 -e 962.011836
N -t 44.423004 -n 0 -e 956.863506
N -t 44.423004 -n 8 -e 965.869077
N -t 44.423005 -n 6 -e 958.150016
N -t 44.423005 -n 7 -e 963.296057
N -t 44.423005 -n 5 -e 959.436526
N -t 44.423005 -n 1 -e 960.723036
N -t 44.423005 -n 4 -e 964.582567
N -t 44.423005 -n 3 -e 958.150016
N -t 44.423005 -n 2 -e 962.009546
s 44.454004682 _3_ MAC  --- 0 SYNC 9 [0.11 3 5] [energy 958.150016 ei 41.789 es 0.003 et 0.003 er 0.051] 
N -t 44.454005 -n 8 -e 965.835077
N -t 44.454005 -n 6 -e 958.116015
N -t 44.454005 -n 0 -e 956.829505
N -t 44.454005 -n 1 -e 960.689036
N -t 44.454005 -n 5 -e 959.402525
N -t 44.454005 -n 4 -e 964.548566
N -t 44.454005 -n 7 -e 963.262056
N -t 44.454006 -n 9 -e 955.542994
N -t 44.454006 -n 2 -e 961.975545
N -t 44.566204 -n 0 -e 956.719306
N -t 44.566204 -n 8 -e 965.724877
N -t 44.566205 -n 6 -e 958.005816
N -t 44.566205 -n 7 -e 963.151857
N -t 44.566205 -n 5 -e 959.292326
N -t 44.566205 -n 1 -e 960.578836
N -t 44.566205 -n 4 -e 964.438367
N -t 44.566205 -n 3 -e 958.005816
N -t 44.566205 -n 9 -e 955.432795
N -t 44.566205 -n 2 -e 961.865346
N -t 45.856004 -n 0 -e 956.717016
N -t 45.856004 -n 8 -e 965.722587
N -t 45.856005 -n 6 -e 958.003526
N -t 45.856005 -n 7 -e 963.149567
N -t 45.856005 -n 5 -e 959.290036
N -t 45.856005 -n 1 -e 960.576546
N -t 45.856005 -n 4 -e 964.436077
N -t 45.856005 -n 3 -e 958.003526
N -t 45.856005 -n 9 -e 955.430506
N -t 45.856005 -n 2 -e 961.863056
s 45.866004686 _9_ MAC  --- 0 SYNC 9 [0.13 9 5] [energy 955.430506 ei 44.509 es 0.001 et 0.003 er 0.054] 
N -t 45.866005 -n 7 -e 963.136566
N -t 45.866005 -n 5 -e 959.277036
N -t 45.866005 -n 2 -e 961.850056
N -t 45.866005 -n 0 -e 956.704015
N -t 45.866005 -n 4 -e 964.423076
N -t 45.866005 -n 1 -e 960.563546
N -t 45.866005 -n 8 -e 965.709586
N -t 45.866005 -n 6 -e 957.990525
N -t 45.866006 -n 3 -e 957.990525
N -t 45.999205 -n 9 -e 955.286306
N -t 45.999205 -n 7 -e 963.005366
N -t 45.999205 -n 5 -e 959.145836
N -t 45.999205 -n 2 -e 961.718856
N -t 45.999205 -n 0 -e 956.572815
N -t 45.999205 -n 4 -e 964.291876
N -t 45.999205 -n 1 -e 960.432346
N -t 45.999205 -n 8 -e 965.578386
N -t 45.999205 -n 6 -e 957.859325
N -t 45.999206 -n 3 -e 957.859325
N -t 47.289005 -n 9 -e 955.284016
N -t 47.289005 -n 7 -e 963.003077
N -t 47.289005 -n 5 -e 959.143546
N -t 47.289005 -n 2 -e 961.716566
N -t 47.289005 -n 0 -e 956.570525
N -t 47.289005 -n 4 -e 964.289587
N -t 47.289005 -n 1 -e 960.430056
N -t 47.289005 -n 8 -e 965.576097
N -t 47.289005 -n 6 -e 957.857035
N -t 47.289006 -n 3 -e 957.857035
s 47.316005407 _8_ MAC  --- 0 SYNC 9 [0.11 8 5] [energy 965.576097 ei 34.331 es 0.013 et 0.006 er 0.054] 
N -t 47.316006 -n 1 -e 960.400056
N -t 47.316006 -n 0 -e 956.540525
N -t 47.316006 -n 3 -e 957.827035
N -t 47.316006 -n 6 -e 957.827035
N -t 47.316006 -n 5 -e 959.113545
N -t 47.316006 -n 7 -e 962.973076
N -t 47.316006 -n 4 -e 964.259586
N -t 47.316006 -n 9 -e 955.254014
N -t 47.316006 -n 2 -e 961.686565
N -t 47.432205 -n 8 -e 965.431897
N -t 47.432206 -n 1 -e 960.285856
N -t 47.432206 -n 0 -e 956.426325
N -t 47.432206 -n 3 -e 957.712835
N -t 47.432206 -n 6 -e 957.712835
N -t 47.432206 -n 5 -e 958.999345
N -t 47.432206 -n 7 -e 962.858876
N -t 47.432206 -n 4 -e 964.145386
N -t 47.432206 -n 9 -e 955.139814
N -t 47.432206 -n 2 -e 961.572365
N -t 48.722005 -n 8 -e 965.429607
N -t 48.722006 -n 1 -e 960.283566
N -t 48.722006 -n 0 -e 956.424035
N -t 48.722006 -n 3 -e 957.710545
N -t 48.722006 -n 6 -e 957.710545
N -t 48.722006 -n 5 -e 958.997055
N -t 48.722006 -n 7 -e 962.856586
N -t 48.722006 -n 4 -e 964.143096
N -t 48.722006 -n 9 -e 955.137524
N -t 48.722006 -n 2 -e 961.570075
s 48.747006127 _4_ MAC  --- 0 SYNC 9 [0.12 4 5] [energy 964.143096 ei 35.761 es 0.013 et 0.006 er 0.057] 
N -t 48.747006 -n 2 -e 961.542075
N -t 48.747006 -n 7 -e 962.828585
N -t 48.747007 -n 0 -e 956.396034
N -t 48.747007 -n 6 -e 957.682544
N -t 48.747007 -n 9 -e 955.109524
N -t 48.747007 -n 5 -e 958.969054
N -t 48.747007 -n 8 -e 965.401605
N -t 48.747007 -n 3 -e 957.682544
N -t 48.747007 -n 1 -e 960.255564
N -t 48.865206 -n 4 -e 963.998896
N -t 48.865206 -n 2 -e 961.425875
N -t 48.865206 -n 7 -e 962.712385
N -t 48.865207 -n 0 -e 956.279834
N -t 48.865207 -n 6 -e 957.566344
N -t 48.865207 -n 9 -e 954.993324
N -t 48.865207 -n 5 -e 958.852854
N -t 48.865207 -n 8 -e 965.285405
N -t 48.865207 -n 3 -e 957.566344
N -t 48.865207 -n 1 -e 960.139364
s 50.000000000 _1_ AGT  --- 0 cbr 50 [0.00 0 0] [energy 960.139364 ei 39.771 es 0.009 et 0.006 er 0.060] ------- [1:0 0:0 32 0] [0] 0 0
r 50.000000000 _1_ RTR  --- 0 cbr 50 [0.00 0 0] [energy 960.139364 ei 39.771 es 0.009 et 0.006 er 0.060] ------- [1:0 0:0 32 0] [0] 0 0
s 50.000000000 _1_ RTR  --- 0 cbr 50 [0.00 0 0] [energy 960.139364 ei 39.771 es 0.009 et 0.006 er 0.060] ------- [1:0 0:0 32 0] [0] 0 0
s 50.000000000 _2_ AGT  --- 1 cbr 50 [0.00 0 0] [energy 961.425875 ei 38.481 es 0.010 et 0.006 er 0.060] ------- [2:0 0:1 32 0] [0] 0 0
r 50.000000000 _2_ RTR  --- 1 cbr 50 [0.00 0 0] [energy 961.425875 ei 38.481 es 0.010 et 0.006 er 0.060] ------- [2:0 0:1 32 0] [0] 0 0
s 50.000000000 _2_ RTR  --- 1 cbr 50 [0.00 0 0] [energy 961.425875 ei 38.481 es 0.010 et 0.006 er 0.060] ------- [2:0 0:1 32 0] [0] 0 0
s 50.000000000 _3_ AGT  --- 2 cbr 50 [0.00 0 0] [energy 957.566344 ei 42.350 es 0.006 et 0.006 er 0.060] ------- [3:0 0:2 32 0] [0] 0 0
r 50.000000000 _3_ RTR  --- 2 cbr 50 [0.00 0 0] [energy 957.566344 ei 42.350 es 0.006 et 0.006 er 0.060] ------- [3:0 0:2 32 0] [0] 0 0
s 50.000000000 _3_ RTR  --- 2 cbr 50 [0.00 0 0] [energy 957.566344 ei 42.350 es 0.006 et 0.006 er 0.060] ------- [3:0 0:2 32 0] [0] 0 0
s 50.000000000 _4_ AGT  --- 3 cbr 50 [0.00 0 0] [energy 963.998896 ei 35.901 es 0.013 et 0.009 er 0.057] ------- [4:0 0:3 32 0] [0] 0 0
r 50.000000000 _4_ RTR  --- 3 cbr 50 [0.00 0 0] [energy 963.998896 ei 35.901 es 0.013 et 0.009 er 0.057] ------- [4:0 0:3 32 0] [0] 0 0
s 50.000000000 _4_ RTR  --- 3 cbr 50 [0.00 0 0] [energy 963.998896 ei 35.901 es 0.013 et 0.009 er 0.057] ------- [4:0 0:3 32 0] [0] 0 0
s 50.000000000 _5_ AGT  --- 4 cbr 50 [0.00 0 0] [energy 958.852854 ei 41.060 es 0.008 et 0.009 er 0.057] ------- [5:0 0:4 32 0] [0] 0 0
r 50.000000000 _5_ RTR  --- 4 cbr 50 [0.00 0 0] [energy 958.852854 ei 41.060 es 0.008 et 0.009 er 0.057] ------- [5:0 0:4 32 0] [0] 0 0
s 50.000000000 _5_ RTR  --- 4 cbr 50 [0.00 0 0] [energy 958.852854 ei 41.060 es 0.008 et 0.009 er 0.057] ------- [5:0 0:4 32 0] [0] 0 0
s 50.000000000 _6_ AGT  --- 5 cbr 50 [0.00 0 0] [energy 957.566344 ei 42.350 es 0.006 et 0.006 er 0.060] ------- [6:0 0:5 32 0] [0] 0 0
r 50.000000000 _6_ RTR  --- 5 cbr 50 [0.00 0 0] [energy 957.566344 ei 42.350 es 0.006 et 0.006 er 0.060] ------- [6:0 0:5 32 0] [0] 0 0
s 50.000000000 _6_ RTR  --- 5 cbr 50 [0.00 0 0] [energy 957.566344 ei 42.350 es 0.006 et 0.006 er 0.060] ------- [6:0 0:5 32 0] [0] 0 0
s 50.000000000 _7_ AGT  --- 6 cbr 50 [0.00 0 0] [energy 962.712385 ei 37.191 es 0.012 et 0.006 er 0.060] ------- [7:0 0:6 32 0] [0] 0 0
r 50.000000000 _7_ RTR  --- 6 cbr 50 [0.00 0 0] [energy 962.712385 ei 37.191 es 0.012 et 0.006 er 0.060] ------- [7:0 0:6 32 0] [0] 0 0
s 50.000000000 _7_ RTR  --- 6 cbr 50 [0.00 0 0] [energy 962.712385 ei 37.191 es 0.012 et 0.006 er 0.060] ------- [7:0 0:6 32 0] [0] 0 0
s 50.000000000 _8_ AGT  --- 7 cbr 50 [0.00 0 0] [energy 965.285405 ei 34.611 es 0.014 et 0.009 er 0.057] ------- [8:0 0:7 32 0] [0] 0 0
r 50.000000000 _8_ RTR  --- 7 cbr 50 [0.00 0 0] [energy 965.285405 ei 34.611 es 0.014 et 0.009 er 0.057] ------- [8:0 0:7 32 0] [0] 0 0
s 50.000000000 _8_ RTR  --- 7 cbr 50 [0.00 0 0] [energy 965.285405 ei 34.611 es 0.014 et 0.009 er 0.057] ------- [8:0 0:7 32 0] [0] 0 0
s 50.000000000 _9_ AGT  --- 8 cbr 50 [0.00 0 0] [energy 954.993324 ei 44.930 es 0.004 et 0.006 er 0.060] ------- [9:0 0:8 32 0] [0] 0 0
r 50.000000000 _9_ RTR  --- 8 cbr 50 [0.00 0 0] [energy 954.993324 ei 44.930 es 0.004 et 0.006 er 0.060] ------- [9:0 0:8 32 0] [0] 0 0
s 50.000000000 _9_ RTR  --- 8 cbr 50 [0.00 0 0] [energy 954.993324 ei 44.930 es 0.004 et 0.006 er 0.060] ------- [9:0 0:8 32 0] [0] 0 0
N -t 50.155006 -n 4 -e 963.996606
N -t 50.155006 -n 2 -e 961.423585
N -t 50.155006 -n 7 -e 962.710096
N -t 50.155007 -n 0 -e 956.277544
N -t 50.155007 -n 6 -e 957.564055
N -t 50.155007 -n 9 -e 954.991034
N -t 50.155007 -n 5 -e 958.850565
N -t 50.155007 -n 8 -e 965.283116
N -t 50.155007 -n 3 -e 957.564054
N -t 50.155007 -n 1 -e 960.137075
s 50.182006447 _7_ MAC  --- 0 SYNC 9 [0.11 7 5] [energy 962.710096 ei 37.191 es 0.013 et 0.006 er 0.060] 
N -t 50.182007 -n 2 -e 961.393585
N -t 50.182007 -n 9 -e 954.961034
N -t 50.182007 -n 0 -e 956.247544
N -t 50.182007 -n 4 -e 963.966605
N -t 50.182007 -n 5 -e 958.820565
N -t 50.182007 -n 6 -e 957.534054
N -t 50.182007 -n 1 -e 960.107075
N -t 50.182007 -n 8 -e 965.253115
N -t 50.182007 -n 3 -e 957.534054
s 50.223206700 _9_ MAC  --- 0 ARP 28 [0.00 -1 9] [energy 954.961034 ei 44.957 es 0.005 et 0.006 er 0.063] ------- [REQUEST 9/9 0/0]
N -t 50.223207 -n 7 -e 962.598895
N -t 50.223207 -n 5 -e 958.739364
N -t 50.223207 -n 2 -e 961.312385
N -t 50.223207 -n 0 -e 956.166344
N -t 50.223207 -n 4 -e 963.885405
N -t 50.223207 -n 1 -e 960.025874
N -t 50.223207 -n 8 -e 965.171915
N -t 50.223207 -n 6 -e 957.452854
N -t 50.223208 -n 3 -e 957.452854
r 50.266206954 _7_ MAC  --- 0 ARP 28 [0.00 -1 9] [energy 962.598895 ei 37.256 es 0.013 et 0.009 er 0.103] ------- [REQUEST 9/9 0/0]
r 50.266206986 _5_ MAC  --- 0 ARP 28 [0.00 -1 9] [energy 958.739364 ei 41.126 es 0.009 et 0.009 er 0.103] ------- [REQUEST 9/9 0/0]
r 50.266207038 _2_ MAC  --- 0 ARP 28 [0.00 -1 9] [energy 961.312385 ei 38.546 es 0.012 et 0.006 er 0.106] ------- [REQUEST 9/9 0/0]
r 50.266207184 _0_ MAC  --- 0 ARP 28 [0.00 -1 9] [energy 956.166344 ei 43.705 es 0.006 et 0.006 er 0.106] ------- [REQUEST 9/9 0/0]
r 50.266207258 _4_ MAC  --- 0 ARP 28 [0.00 -1 9] [energy 963.885405 ei 35.966 es 0.014 et 0.009 er 0.103] ------- [REQUEST 9/9 0/0]
r 50.266207314 _1_ MAC  --- 0 ARP 28 [0.00 -1 9] [energy 960.025874 ei 39.836 es 0.010 et 0.006 er 0.106] ------- [REQUEST 9/9 0/0]
r 50.266207421 _8_ MAC  --- 0 ARP 28 [0.00 -1 9] [energy 965.171915 ei 34.677 es 0.015 et 0.009 er 0.103] ------- [REQUEST 9/9 0/0]
r 50.266207452 _6_ MAC  --- 0 ARP 28 [0.00 -1 9] [energy 957.452854 ei 42.415 es 0.008 et 0.006 er 0.106] ------- [REQUEST 9/9 0/0]
r 50.266207660 _3_ MAC  --- 0 ARP 28 [0.00 -1 9] [energy 957.452854 ei 42.415 es 0.008 et 0.006 er 0.106] ------- [REQUEST 9/9 0/0]
N -t 50.298206 -n 7 -e 962.565896
N -t 50.298207 -n 2 -e 961.279385
N -t 50.298207 -n 9 -e 954.846834
N -t 50.298207 -n 0 -e 956.133344
N -t 50.298207 -n 4 -e 963.852405
N -t 50.298207 -n 5 -e 958.706365
N -t 50.298207 -n 6 -e 957.419854
N -t 50.298207 -n 1 -e 959.992875
N -t 50.298207 -n 8 -e 965.138915
N -t 50.298207 -n 3 -e 957.419854
N -t 51.000000 -n 0 -e 956.132642
N -t 51.000000 -n 1 -e 959.992173
N -t 51.000000 -n 2 -e 961.278683
N -t 51.000000 -n 3 -e 957.419152
N -t 51.000000 -n 4 -e 963.851704
N -t 51.000000 -n 5 -e 958.705663
N -t 51.000000 -n 6 -e 957.419152
N -t 51.000000 -n 7 -e 962.565194
N -t 51.000000 -n 8 -e 965.138214
N -t 51.000000 -n 9 -e 954.846132
N -t 51.588006 -n 7 -e 962.563606
N -t 51.588007 -n 2 -e 961.277095
N -t 51.588007 -n 9 -e 954.844544
N -t 51.588007 -n 0 -e 956.131054
N -t 51.588007 -n 4 -e 963.850116
N -t 51.588007 -n 5 -e 958.704075
N -t 51.588007 -n 6 -e 957.417564
N -t 51.588007 -n 1 -e 959.990585
N -t 51.588007 -n 8 -e 965.136626
N -t 51.588007 -n 3 -e 957.417564
s 51.610006681 _2_ MAC  --- 0 SYNC 9 [0.12 2 5] [energy 961.277095 ei 38.578 es 0.013 et 0.006 er 0.106] 
N -t 51.610007 -n 7 -e 962.538605
N -t 51.610007 -n 4 -e 963.825115
N -t 51.610007 -n 9 -e 954.819544
N -t 51.610007 -n 0 -e 956.106054
N -t 51.610007 -n 5 -e 958.679074
N -t 51.610007 -n 6 -e 957.392564
N -t 51.610008 -n 1 -e 959.965584
N -t 51.610008 -n 8 -e 965.111625
N -t 51.610008 -n 3 -e 957.392564
s 51.657207659 _3_ MAC  --- 0 ARP 28 [0.00 -1 3] [energy 957.392564 ei 42.469 es 0.009 et 0.006 er 0.109] ------- [REQUEST 3/3 0/0]
N -t 51.657208 -n 8 -e 965.024425
N -t 51.657208 -n 6 -e 957.305363
N -t 51.657208 -n 0 -e 956.018853
N -t 51.657208 -n 1 -e 959.878384
N -t 51.657208 -n 5 -e 958.591873
N -t 51.657208 -n 4 -e 963.737914
N -t 51.657208 -n 7 -e 962.451404
N -t 51.657209 -n 9 -e 954.732342
N -t 51.657209 -n 2 -e 961.164893
r 51.700207962 _8_ MAC  --- 0 ARP 28 [0.00 -1 3] [energy 965.024425 ei 34.775 es 0.017 et 0.009 er 0.149] ------- [REQUEST 3/3 0/0]
r 51.700207988 _6_ MAC  --- 0 ARP 28 [0.00 -1 3] [energy 957.305363 ei 42.514 es 0.009 et 0.006 er 0.152] ------- [REQUEST 3/3 0/0]
r 51.700208138 _0_ MAC  --- 0 ARP 28 [0.00 -1 3] [energy 956.018853 ei 43.803 es 0.008 et 0.006 er 0.152] ------- [REQUEST 3/3 0/0]
r 51.700208217 _1_ MAC  --- 0 ARP 28 [0.00 -1 3] [energy 959.878384 ei 39.934 es 0.012 et 0.006 er 0.152] ------- [REQUEST 3/3 0/0]
r 51.700208417 _5_ MAC  --- 0 ARP 28 [0.00 -1 3] [energy 958.591873 ei 41.224 es 0.010 et 0.009 er 0.149] ------- [REQUEST 3/3 0/0]
r 51.700208437 _4_ MAC  --- 0 ARP 28 [0.00 -1 3] [energy 963.737914 ei 36.065 es 0.015 et 0.009 er 0.149] ------- [REQUEST 3/3 0/0]
r 51.700208438 _7_ MAC  --- 0 ARP 28 [0.00 -1 3] [energy 962.451404 ei 37.354 es 0.014 et 0.009 er 0.149] ------- [REQUEST 3/3 0/0]
r 51.700208618 _9_ MAC  --- 0 ARP 28 [0.00 -1 3] [energy 954.732342 ei 45.093 es 0.006 et 0.049 er 0.109] ------- [REQUEST 3/3 0/0]
r 51.700208636 _2_ MAC  --- 0 ARP 28 [0.00 -1 3] [energy 961.164893 ei 38.644 es 0.013 et 0.009 er 0.149] ------- [REQUEST 3/3 0/0]
N -t 51.731207 -n 2 -e 961.132895
N -t 51.731207 -n 7 -e 962.419405
N -t 51.731207 -n 4 -e 963.705915
N -t 51.731207 -n 9 -e 954.700344
N -t 51.731207 -n 0 -e 955.986854
N -t 51.731207 -n 5 -e 958.559874
N -t 51.731207 -n 6 -e 957.273364
N -t 51.731208 -n 1 -e 959.846384
N -t 51.731208 -n 8 -e 964.992425
N -t 51.731208 -n 3 -e 957.273364
N -t 53.021007 -n 2 -e 961.130606
N -t 53.021007 -n 7 -e 962.417115
N -t 53.021007 -n 4 -e 963.703626
N -t 53.021007 -n 9 -e 954.698054
N -t 53.021007 -n 0 -e 955.984564
N -t 53.021007 -n 5 -e 958.557585
N -t 53.021007 -n 6 -e 957.271074
N -t 53.021008 -n 1 -e 959.844094
N -t 53.021008 -n 8 -e 964.990135
N -t 53.021008 -n 3 -e 957.271074
s 53.035007501 _1_ MAC  --- 0 SYNC 9 [0.13 1 5] [energy 959.844094 ei 39.965 es 0.013 et 0.006 er 0.152] 
N -t 53.035008 -n 8 -e 964.973135
N -t 53.035008 -n 5 -e 958.540584
N -t 53.035008 -n 0 -e 955.967564
N -t 53.035008 -n 3 -e 957.254074
N -t 53.035008 -n 7 -e 962.400114
N -t 53.035008 -n 6 -e 957.254074
N -t 53.035008 -n 9 -e 954.681053
N -t 53.035008 -n 4 -e 963.686624
N -t 53.035008 -n 2 -e 961.113604
s 53.097207501 _1_ MAC  --- 0 ARP 28 [0.00 -1 1] [energy 959.827094 ei 39.979 es 0.013 et 0.009 er 0.152] ------- [REQUEST 1/1 0/0]
N -t 53.097208 -n 8 -e 964.870935
N -t 53.097208 -n 5 -e 958.438384
N -t 53.097208 -n 0 -e 955.865364
N -t 53.097208 -n 3 -e 957.151874
N -t 53.097208 -n 7 -e 962.297914
N -t 53.097208 -n 6 -e 957.151874
N -t 53.097208 -n 9 -e 954.578853
N -t 53.097208 -n 4 -e 963.584424
N -t 53.097208 -n 2 -e 961.011404
r 53.140207758 _8_ MAC  --- 0 ARP 28 [0.00 -1 1] [energy 964.870935 ei 34.879 es 0.018 et 0.009 er 0.195] ------- [REQUEST 1/1 0/0]
r 53.140207832 _5_ MAC  --- 0 ARP 28 [0.00 -1 1] [energy 958.438384 ei 41.328 es 0.012 et 0.009 er 0.195] ------- [REQUEST 1/1 0/0]
r 53.140207876 _0_ MAC  --- 0 ARP 28 [0.00 -1 1] [energy 955.865364 ei 43.908 es 0.009 et 0.006 er 0.198] ------- [REQUEST 1/1 0/0]
r 53.140208059 _3_ MAC  --- 0 ARP 28 [0.00 -1 1] [energy 957.151874 ei 42.618 es 0.010 et 0.049 er 0.155] ------- [REQUEST 1/1 0/0]
r 53.140208089 _7_ MAC  --- 0 ARP 28 [0.00 -1 1] [energy 962.297914 ei 37.459 es 0.015 et 0.009 er 0.195] ------- [REQUEST 1/1 0/0]
r 53.140208096 _6_ MAC  --- 0 ARP 28 [0.00 -1 1] [energy 957.151874 ei 42.618 es 0.010 et 0.006 er 0.198] ------- [REQUEST 1/1 0/0]
r 53.140208115 _9_ MAC  --- 0 ARP 28 [0.00 -1 1] [energy 954.578853 ei 45.197 es 0.008 et 0.049 er 0.155] ------- [REQUEST 1/1 0/0]
r 53.140208311 _4_ MAC  --- 0 ARP 28 [0.00 -1 1] [energy 963.584424 ei 36.169 es 0.017 et 0.009 er 0.195] ------- [REQUEST 1/1 0/0]
r 53.140208321 _2_ MAC  --- 0 ARP 28 [0.00 -1 1] [energy 961.011404 ei 38.748 es 0.014 et 0.009 er 0.195] ------- [REQUEST 1/1 0/0]
N -t 53.164208 -n 1 -e 959.699894
N -t 53.164208 -n 8 -e 964.845935
N -t 53.164208 -n 5 -e 958.413384
N -t 53.164208 -n 0 -e 955.840364
N -t 53.164208 -n 3 -e 957.126874
N -t 53.164208 -n 7 -e 962.272914
N -t 53.164208 -n 6 -e 957.126874
N -t 53.164208 -n 9 -e 954.553853
N -t 53.164208 -n 4 -e 963.559424
N -t 53.164208 -n 2 -e 960.986404
N -t 54.454008 -n 1 -e 959.697605
N -t 54.454008 -n 8 -e 964.843645
N -t 54.454008 -n 5 -e 958.411094
N -t 54.454008 -n 0 -e 955.838074
N -t 54.454008 -n 3 -e 957.124584
N -t 54.454008 -n 7 -e 962.270625
N -t 54.454008 -n 6 -e 957.124584
N -t 54.454008 -n 9 -e 954.551563
N -t 54.454008 -n 4 -e 963.557134
N -t 54.454008 -n 2 -e 960.984114
s 54.465007832 _5_ MAC  --- 0 SYNC 9 [0.13 5 8] [energy 958.411094 ei 41.352 es 0.013 et 0.009 er 0.195] 
N -t 54.465008 -n 9 -e 954.537563
N -t 54.465008 -n 1 -e 959.683604
N -t 54.465008 -n 0 -e 955.824073
N -t 54.465008 -n 7 -e 962.256624
N -t 54.465008 -n 8 -e 964.829645
N -t 54.465008 -n 2 -e 960.970114
N -t 54.465008 -n 6 -e 957.110583
N -t 54.465008 -n 4 -e 963.543134
N -t 54.465009 -n 3 -e 957.110583
s 54.531208376 _2_ MAC  --- 0 ARP 28 [0.00 -1 2] [energy 960.970114 ei 38.783 es 0.015 et 0.009 er 0.198] ------- [REQUEST 2/2 0/0]
N -t 54.531209 -n 7 -e 962.150424
N -t 54.531209 -n 4 -e 963.436934
N -t 54.531209 -n 9 -e 954.431363
N -t 54.531209 -n 0 -e 955.717873
N -t 54.531209 -n 5 -e 958.290893
N -t 54.531209 -n 6 -e 957.004383
N -t 54.531209 -n 1 -e 959.577403
N -t 54.531209 -n 8 -e 964.723444
N -t 54.531209 -n 3 -e 957.004382
r 54.574208610 _7_ MAC  --- 0 ARP 28 [0.00 -1 2] [energy 962.150424 ei 37.557 es 0.017 et 0.009 er 0.241] ------- [REQUEST 2/2 0/0]
r 54.574208684 _4_ MAC  --- 0 ARP 28 [0.00 -1 2] [energy 963.436934 ei 36.267 es 0.018 et 0.009 er 0.241] ------- [REQUEST 2/2 0/0]