s 50.000000000 _1_ AGT  --- 0 cbr 50 [0 0 0 0] [energy 1000.000000 ei 0.000 es 0.000 et 0.000 er 0.000] ------- [1:0 0:0 32 0] [0] 0 0
r 50.000000000 _1_ RTR  --- 0 cbr 50 [0 0 0 0] [energy 1000.000000 ei 0.000 es 0.000 et 0.000 er 0.000] ------- [1:0 0:0 32 0] [0] 0 0
s 50.000000000 _1_ RTR  --- 0 cbr 50 [0 0 0 0] [energy 1000.000000 ei 0.000 es 0.000 et 0.000 er 0.000] ------- [1:0 0:0 32 0] [0] 0 0
s 50.000000000 _2_ AGT  --- 1 cbr 50 [0 0 0 0] [energy 1000.000000 ei 0.000 es 0.000 et 0.000 er 0.000] ------- [2:0 0:1 32 0] [0] 0 0
r 50.000000000 _2_ RTR  --- 1 cbr 50 [0 0 0 0] [energy 1000.000000 ei 0.000 es 0.000 et 0.000 er 0.000] ------- [2:0 0:1 32 0] [0] 0 0
s 50.000000000 _2_ RTR  --- 1 cbr 50 [0 0 0 0] [energy 1000.000000 ei 0.000 es 0.000 et 0.000 er 0.000] ------- [2:0 0:1 32 0] [0] 0 0
s 50.000000000 _3_ AGT  --- 2 cbr 50 [0 0 0 0] [energy 1000.000000 ei 0.000 es 0.000 et 0.000 er 0.000] ------- [3:0 0:2 32 0] [0] 0 0
r 50.000000000 _3_ RTR  --- 2 cbr 50 [0 0 0 0] [energy 1000.000000 ei 0.000 es 0.000 et 0.000 er 0.000] ------- [3:0 0:2 32 0] [0] 0 0
s 50.000000000 _3_ RTR  --- 2 cbr 50 [0 0 0 0] [energy 1000.000000 ei 0.000 es 0.000 et 0.000 er 0.000] ------- [3:0 0:2 32 0] [0] 0 0
s 50.000000000 _4_ AGT  --- 3 cbr 50 [0 0 0 0] [energy 1000.000000 ei 0.000 es 0.000 et 0.000 er 0.000] ------- [4:0 0:3 32 0] [0] 0 0
r 50.000000000 _4_ RTR  --- 3 cbr 50 [0 0 0 0] [energy 1000.000000 ei 0.000 es 0.000 et 0.000 er 0.000] ------- [4:0 0:3 32 0] [0] 0 0
s 50.000000000 _4_ RTR  --- 3 cbr 50 [0 0 0 0] [energy 1000.000000 ei 0.000 es 0.000 et 0.000 er 0.000] ------- [4:0 0:3 32 0] [0] 0 0
s 50.000000000 _5_ AGT  --- 4 cbr 50 [0 0 0 0] [energy 1000.000000 ei 0.000 es 0.000 et 0.000 er 0.000] ------- [5:0 0:4 32 0] [0] 0 0
r 50.000000000 _5_ RTR  --- 4 cbr 50 [0 0 0 0] [energy 1000.000000 ei 0.000 es 0.000 et 0.000 er 0.000] ------- [5:0 0:4 32 0] [0] 0 0
s 50.000000000 _5_ RTR  --- 4 cbr 50 [0 0 0 0] [energy 1000.000000 ei 0.000 es 0.000 et 0.000 er 0.000] ------- [5:0 0:4 32 0] [0] 0 0
s 50.000000000 _6_ AGT  --- 5 cbr 50 [0 0 0 0] [energy 1000.000000 ei 0.000 es 0.000 et 0.000 er 0.000] ------- [6:0 0:5 32 0] [0] 0 0
r 50.000000000 _6_ RTR  --- 5 cbr 50 [0 0 0 0] [energy 1000.000000 ei 0.000 es 0.000 et 0.000 er 0.000] ------- [6:0 0:5 32 0] [0] 0 0
s 50.000000000 _6_ RTR  --- 5 cbr 50 [0 0 0 0] [energy 1000.000000 ei 0.000 es 0.000 et 0.000 er 0.000] ------- [6:0 0:5 32 0] [0] 0 0
s 50.000000000 _7_ AGT  --- 6 cbr 50 [0 0 0 0] [energy 1000.000000 ei 0.000 es 0.000 et 0.000 er 0.000] ------- [7:0 0:6 32 0] [0] 0 0
r 50.000000000 _7_ RTR  --- 6 cbr 50 [0 0 0 0] [energy 1000.000000 ei 0.000 es 0.000 et 0.000 er 0.000] ------- [7:0 0:6 32 0] [0] 0 0
s 50.000000000 _7_ RTR  --- 6 cbr 50 [0 0 0 0] [energy 1000.000000 ei 0.000 es 0.000 et 0.000 er 0.000] ------- [7:0 0:6 32 0] [0] 0 0
s 50.000000000 _8_ AGT  --- 7 cbr 50 [0 0 0 0] [energy 1000.000000 ei 0.000 es 0.000 et 0.000 er 0.000] ------- [8:0 0:7 32 0] [0] 0 0
r 50.000000000 _8_ RTR  --- 7 cbr 50 [0 0 0 0] [energy 1000.000000 ei 0.000 es 0.000 et 0.000 er 0.000] ------- [8:0 0:7 32 0] [0] 0 0
s 50.000000000 _8_ RTR  --- 7 cbr 50 [0 0 0 0] [energy 1000.000000 ei 0.000 es 0.000 et 0.000 er 0.000] ------- [8:0 0:7 32 0] [0] 0 0
s 50.000000000 _9_ AGT  --- 8 cbr 50 [0 0 0 0] [energy 1000.000000 ei 0.000 es 0.000 et 0.000 er 0.000] ------- [9:0 0:8 32 0] [0] 0 0
r 50.000000000 _9_ RTR  --- 8 cbr 50 [0 0 0 0] [energy 1000.000000 ei 0.000 es 0.000 et 0.000 er 0.000] ------- [9:0 0:8 32 0] [0] 0 0
s 50.000000000 _9_ RTR  --- 8 cbr 50 [0 0 0 0] [energy 1000.000000 ei 0.000 es 0.000 et 0.000 er 0.000] ------- [9:0 0:8 32 0] [0] 0 0
s 50.000095000 _4_ MAC  --- 0 ARP 86 [0 ffffffff 4 806] [energy 1000.000000 ei 0.000 es 0.000 et 0.000 er 0.000] ------- [REQUEST 4/4 0/0]
N -t 50.000095 -n 2 -e 949.999217
N -t 50.000095 -n 7 -e 949.999217
N -t 50.000095 -n 0 -e 949.999217
N -t 50.000095 -n 6 -e 949.999217
N -t 50.000096 -n 9 -e 949.999216
N -t 50.000096 -n 5 -e 949.999216
N -t 50.000096 -n 8 -e 949.999216
N -t 50.000096 -n 3 -e 949.999216
N -t 50.000096 -n 1 -e 949.999216
r 50.000783308 _2_ MAC  --- 0 ARP 28 [0 ffffffff 4 806] [energy 949.999217 ei 50.000 es 0.000 et 0.000 er 0.001] ------- [REQUEST 4/4 0/0]
r 50.000783320 _7_ MAC  --- 0 ARP 28 [0 ffffffff 4 806] [energy 949.999217 ei 50.000 es 0.000 et 0.000 er 0.001] ------- [REQUEST 4/4 0/0]
r 50.000783443 _0_ MAC  --- 0 ARP 28 [0 ffffffff 4 806] [energy 949.999217 ei 50.000 es 0.000 et 0.000 er 0.001] ------- [REQUEST 4/4 0/0]
r 50.000783453 _6_ MAC  --- 0 ARP 28 [0 ffffffff 4 806] [energy 949.999217 ei 50.000 es 0.000 et 0.000 er 0.001] ------- [REQUEST 4/4 0/0]
r 50.000783558 _9_ MAC  --- 0 ARP 28 [0 ffffffff 4 806] [energy 949.999216 ei 50.000 es 0.000 et 0.000 er 0.001] ------- [REQUEST 4/4 0/0]
r 50.000783639 _5_ MAC  --- 0 ARP 28 [0 ffffffff 4 806] [energy 949.999216 ei 50.000 es 0.000 et 0.000 er 0.001] ------- [REQUEST 4/4 0/0]
r 50.000783720 _8_ MAC  --- 0 ARP 28 [0 ffffffff 4 806] [energy 949.999216 ei 50.000 es 0.000 et 0.000 er 0.001] ------- [REQUEST 4/4 0/0]
r 50.000783779 _3_ MAC  --- 0 ARP 28 [0 ffffffff 4 806] [energy 949.999216 ei 50.000 es 0.000 et 0.000 er 0.001] ------- [REQUEST 4/4 0/0]
r 50.000783810 _1_ MAC  --- 0 ARP 28 [0 ffffffff 4 806] [energy 949.999216 ei 50.000 es 0.000 et 0.000 er 0.001] ------- [REQUEST 4/4 0/0]
s 50.000953453 _6_ MAC  --- 0 ARP 86 [0 ffffffff 6 806] [energy 949.999217 ei 50.000 es 0.000 et 0.000 er 0.001] ------- [REQUEST 6/6 0/0]
s 50.000953558 _9_ MAC  --- 0 ARP 86 [0 ffffffff 9 806] [energy 949.999216 ei 50.000 es 0.000 et 0.000 er 0.001] ------- [REQUEST 9/9 0/0]
N -t 50.000954 -n 0 -e 949.998358
N -t 50.000954 -n 3 -e 949.998358
N -t 50.000954 -n 7 -e 949.998358
N -t 50.000954 -n 8 -e 949.998358
N -t 50.000954 -n 5 -e 949.998358
N -t 50.000954 -n 2 -e 949.998358
N -t 50.000954 -n 4 -e 949.998358
N -t 50.000954 -n 7 -e 949.998358
N -t 50.000954 -n 0 -e 949.998358
D 50.000954041 _0_ MAC  COL 0 ARP 86 [0 ffffffff 6 806] [energy 949.998358 ei 50.000 es 0.000 et 0.000 er 0.001] ------- [REQUEST 6/6 0/0]
N -t 50.000954 -n 1 -e 949.998358
N -t 50.000954 -n 5 -e 949.998358
N -t 50.000954 -n 4 -e 949.998358
D 50.000954115 _4_ MAC  COL 0 ARP 86 [0 ffffffff 6 806] [energy 949.998358 ei 50.000 es 0.000 et 0.001 er 0.001] ------- [REQUEST 6/6 0/0]
N -t 50.000954 -n 2 -e 949.998358
N -t 50.000954 -n 1 -e 949.998358
D 50.000954171 _1_ MAC  COL 0 ARP 86 [0 ffffffff 6 806] [energy 949.998358 ei 50.000 es 0.000 et 0.000 er 0.001] ------- [REQUEST 6/6 0/0]
N -t 50.000954 -n 9 -e 949.998358
N -t 50.000954 -n 8 -e 949.998358
N -t 50.000954 -n 6 -e 949.998358
N -t 50.000955 -n 3 -e 949.998357
r 50.001641783 _3_ MAC  --- 0 ARP 28 [0 ffffffff 6 806] [energy 949.998357 ei 50.000 es 0.000 et 0.000 er 0.001] ------- [REQUEST 6/6 0/0]
r 50.001641811 _7_ MAC  --- 0 ARP 28 [0 ffffffff 9 806] [energy 949.998358 ei 50.000 es 0.000 et 0.000 er 0.001] ------- [REQUEST 9/9 0/0]
r 50.001641839 _8_ MAC  --- 0 ARP 28 [0 ffffffff 6 806] [energy 949.998358 ei 50.000 es 0.000 et 0.000 er 0.001] ------- [REQUEST 6/6 0/0]
r 50.001641843 _5_ MAC  --- 0 ARP 28 [0 ffffffff 9 806] [energy 949.998358 ei 50.000 es 0.000 et 0.000 er 0.001] ------- [REQUEST 9/9 0/0]
r 50.001641895 _2_ MAC  --- 0 ARP 28 [0 ffffffff 9 806] [energy 949.998358 ei 50.000 es 0.000 et 0.000 er 0.001] ------- [REQUEST 9/9 0/0]
D 50.001642041 _0_ MAC  COL 0 ARP 86 [0 ffffffff 9 806] [energy 949.998358 ei 50.000 es 0.000 et 0.000 er 0.001] ------- [REQUEST 9/9 0/0]
D 50.001642115 _4_ MAC  COL 0 ARP 86 [0 ffffffff 9 806] [energy 949.998358 ei 50.000 es 0.000 et 0.001 er 0.001] ------- [REQUEST 9/9 0/0]
D 50.001642171 _1_ MAC  COL 0 ARP 86 [0 ffffffff 9 806] [energy 949.998358 ei 50.000 es 0.000 et 0.000 er 0.001] ------- [REQUEST 9/9 0/0]
s 50.002136279 _8_ MAC  --- 0 ARP 86 [0 ffffffff 8 806] [energy 949.998358 ei 50.000 es 0.000 et 0.000 er 0.001] ------- [REQUEST 8/8 0/0]
s 50.002136517 _3_ MAC  --- 0 ARP 86 [0 ffffffff 3 806] [energy 949.998357 ei 50.000 es 0.000 et 0.000 er 0.001] ------- [REQUEST 3/3 0/0]
N -t 50.002137 -n 1 -e 949.997175
N -t 50.002137 -n 0 -e 949.997175
N -t 50.002137 -n 3 -e 949.997175
N -t 50.002137 -n 6 -e 949.997175
N -t 50.002137 -n 5 -e 949.997175
N -t 50.002137 -n 8 -e 949.997175
N -t 50.002137 -n 6 -e 949.997175
D 50.002136847 _6_ MAC  COL 0 ARP 86 [0 ffffffff 8 806] [energy 949.997175 ei 50.001 es 0.000 et 0.001 er 0.001] ------- [REQUEST 8/8 0/0]
N -t 50.002137 -n 7 -e 949.997175
N -t 50.002137 -n 0 -e 949.997175
D 50.002136997 _0_ MAC  COL 0 ARP 86 [0 ffffffff 8 806] [energy 949.997175 ei 50.001 es 0.000 et 0.000 er 0.002] ------- [REQUEST 8/8 0/0]
N -t 50.002137 -n 4 -e 949.997175
N -t 50.002137 -n 9 -e 949.997175
N -t 50.002137 -n 1 -e 949.997175
N -t 50.002137 -n 2 -e 949.997175
N -t 50.002137 -n 5 -e 949.997175
D 50.002137275 _5_ MAC  COL 0 ARP 86 [0 ffffffff 8 806] [energy 949.997175 ei 50.001 es 0.000 et 0.000 er 0.002] ------- [REQUEST 8/8 0/0]
N -t 50.002137 -n 4 -e 949.997175
D 50.002137296 _4_ MAC  COL 0 ARP 86 [0 ffffffff 8 806] [energy 949.997175 ei 50.001 es 0.000 et 0.001 er 0.001] ------- [REQUEST 8/8 0/0]
N -t 50.002137 -n 7 -e 949.997175
D 50.002137297 _7_ MAC  COL 0 ARP 86 [0 ffffffff 8 806] [energy 949.997175 ei 50.001 es 0.000 et 0.000 er 0.002] ------- [REQUEST 8/8 0/0]
N -t 50.002137 -n 9 -e 949.997175
D 50.002137477 _9_ MAC  COL 0 ARP 86 [0 ffffffff 8 806] [energy 949.997175 ei 50.001 es 0.000 et 0.001 er 0.001] ------- [REQUEST 8/8 0/0]
N -t 50.002137 -n 2 -e 949.997175
D 50.002137495 _2_ MAC  COL 0 ARP 86 [0 ffffffff 8 806] [energy 949.997175 ei 50.001 es 0.000 et 0.000 er 0.002] ------- [REQUEST 8/8 0/0]
r 50.002824536 _1_ MAC  --- 0 ARP 28 [0 ffffffff 8 806] [energy 949.997175 ei 50.001 es 0.000 et 0.000 er 0.002] ------- [REQUEST 8/8 0/0]
D 50.002824847 _6_ MAC  COL 0 ARP 86 [0 ffffffff 3 806] [energy 949.997175 ei 50.001 es 0.000 et 0.001 er 0.001] ------- [REQUEST 3/3 0/0]
D 50.002824997 _0_ MAC  COL 0 ARP 86 [0 ffffffff 3 806] [energy 949.997175 ei 50.001 es 0.000 et 0.000 er 0.002] ------- [REQUEST 3/3 0/0]
D 50.002825275 _5_ MAC  COL 0 ARP 86 [0 ffffffff 3 806] [energy 949.997175 ei 50.001 es 0.000 et 0.000 er 0.002] ------- [REQUEST 3/3 0/0]
D 50.002825296 _4_ MAC  COL 0 ARP 86 [0 ffffffff 3 806] [energy 949.997175 ei 50.001 es 0.000 et 0.001 er 0.001] ------- [REQUEST 3/3 0/0]
D 50.002825297 _7_ MAC  COL 0 ARP 86 [0 ffffffff 3 806] [energy 949.997175 ei 50.001 es 0.000 et 0.000 er 0.002] ------- [REQUEST 3/3 0/0]
D 50.002825477 _9_ MAC  COL 0 ARP 86 [0 ffffffff 3 806] [energy 949.997175 ei 50.001 es 0.000 et 0.001 er 0.001] ------- [REQUEST 3/3 0/0]
D 50.002825495 _2_ MAC  COL 0 ARP 86 [0 ffffffff 3 806] [energy 949.997175 ei 50.001 es 0.000 et 0.000 er 0.002] ------- [REQUEST 3/3 0/0]
s 50.003259495 _2_ MAC  --- 0 ARP 86 [0 ffffffff 2 806] [energy 949.997175 ei 50.001 es 0.000 et 0.000 er 0.002] ------- [REQUEST 2/2 0/0]
N -t 50.003260 -n 7 -e 949.996052
N -t 50.003260 -n 4 -e 949.996052
N -t 50.003260 -n 9 -e 949.996052
N -t 50.003260 -n 0 -e 949.996052
N -t 50.003260 -n 5 -e 949.996052
N -t 50.003260 -n 6 -e 949.996052
N -t 50.003260 -n 1 -e 949.996052
N -t 50.003260 -n 8 -e 949.996052
N -t 50.003260 -n 3 -e 949.996052
r 50.003947729 _7_ MAC  --- 0 ARP 28 [0 ffffffff 2 806] [energy 949.996052 ei 50.001 es 0.000 et 0.000 er 0.003] ------- [REQUEST 2/2 0/0]
r 50.003947803 _4_ MAC  --- 0 ARP 28 [0 ffffffff 2 806] [energy 949.996052 ei 50.001 es 0.000 et 0.001 er 0.002] ------- [REQUEST 2/2 0/0]
r 50.003947832 _9_ MAC  --- 0 ARP 28 [0 ffffffff 2 806] [energy 949.996052 ei 50.001 es 0.000 et 0.001 er 0.002] ------- [REQUEST 2/2 0/0]
r 50.003948026 _0_ MAC  --- 0 ARP 28 [0 ffffffff 2 806] [energy 949.996052 ei 50.001 es 0.000 et 0.000 er 0.003] ------- [REQUEST 2/2 0/0]
r 50.003948039 _5_ MAC  --- 0 ARP 28 [0 ffffffff 2 806] [energy 949.996052 ei 50.001 es 0.000 et 0.000 er 0.003] ------- [REQUEST 2/2 0/0]
r 50.003948180 _6_ MAC  --- 0 ARP 28 [0 ffffffff 2 806] [energy 949.996052 ei 50.001 es 0.000 et 0.001 er 0.002] ------- [REQUEST 2/2 0/0]
r 50.003948315 _1_ MAC  --- 0 ARP 28 [0 ffffffff 2 806] [energy 949.996052 ei 50.001 es 0.000 et 0.000 er 0.003] ------- [REQUEST 2/2 0/0]
r 50.003948322 _8_ MAC  --- 0 ARP 28 [0 ffffffff 2 806] [energy 949.996052 ei 50.001 es 0.000 et 0.001 er 0.002] ------- [REQUEST 2/2 0/0]
r 50.003948472 _3_ MAC  --- 0 ARP 28 [0 ffffffff 2 806] [energy 949.996052 ei 50.001 es 0.000 et 0.001 er 0.002] ------- [REQUEST 2/2 0/0]
s 50.004097729 _7_ MAC  --- 0 ARP 86 [0 ffffffff 7 806] [energy 949.996052 ei 50.001 es 0.000 et 0.000 er 0.003] ------- [REQUEST 7/7 0/0]
N -t 50.004098 -n 2 -e 949.995214
N -t 50.004098 -n 9 -e 949.995214
N -t 50.004098 -n 0 -e 949.995214
N -t 50.004098 -n 4 -e 949.995214
N -t 50.004098 -n 5 -e 949.995214
N -t 50.004098 -n 6 -e 949.995214
s 50.004098315 _1_ MAC  --- 0 ARP 86 [0 ffffffff 1 806] [energy 949.996052 ei 50.001 es 0.000 et 0.000 er 0.003] ------- [REQUEST 1/1 0/0]
N -t 50.004098 -n 1 -e 949.995214
N -t 50.004098 -n 8 -e 949.995214
N -t 50.004099 -n 3 -e 949.995213
N -t 50.004099 -n 8 -e 949.995213
D 50.004098572 _8_ MAC  COL 0 ARP 86 [0 ffffffff 7 806] [energy 949.995213 ei 50.001 es 0.000 et 0.001 er 0.003] ------- [REQUEST 7/7 0/0]
N -t 50.004099 -n 5 -e 949.995213
D 50.004098646 _5_ MAC  COL 0 ARP 86 [0 ffffffff 7 806] [energy 949.995213 ei 50.001 es 0.000 et 0.000 er 0.003] ------- [REQUEST 7/7 0/0]
N -t 50.004099 -n 0 -e 949.995213
N -t 50.004099 -n 3 -e 949.995213
D 50.004098873 _3_ MAC  COL 0 ARP 86 [0 ffffffff 7 806] [energy 949.995213 ei 50.001 es 0.000 et 0.001 er 0.003] ------- [REQUEST 7/7 0/0]
N -t 50.004099 -n 7 -e 949.995213
N -t 50.004099 -n 6 -e 949.995213
D 50.004098910 _6_ MAC  COL 0 ARP 86 [0 ffffffff 7 806] [energy 949.995213 ei 50.001 es 0.000 et 0.001 er 0.003] ------- [REQUEST 7/7 0/0]
N -t 50.004099 -n 9 -e 949.995213
N -t 50.004099 -n 4 -e 949.995213
N -t 50.004099 -n 2 -e 949.995213
r 50.004785963 _2_ MAC  --- 0 ARP 28 [0 ffffffff 7 806] [energy 949.995213 ei 50.001 es 0.000 et 0.001 er 0.003] ------- [REQUEST 7/7 0/0]
r 50.004785982 _9_ MAC  --- 0 ARP 28 [0 ffffffff 7 806] [energy 949.995213 ei 50.001 es 0.000 et 0.001 er 0.003] ------- [REQUEST 7/7 0/0]
r 50.004786039 _0_ MAC  --- 0 ARP 28 [0 ffffffff 7 806] [energy 949.995213 ei 50.001 es 0.000 et 0.000 er 0.003] ------- [REQUEST 7/7 0/0]
r 50.004786049 _4_ MAC  --- 0 ARP 28 [0 ffffffff 7 806] [energy 949.995213 ei 50.001 es 0.000 et 0.001 er 0.003] ------- [REQUEST 7/7 0/0]
D 50.004786572 _8_ MAC  COL 0 ARP 86 [0 ffffffff 1 806] [energy 949.995213 ei 50.001 es 0.000 et 0.001 er 0.003] ------- [REQUEST 1/1 0/0]
D 50.004786646 _5_ MAC  COL 0 ARP 86 [0 ffffffff 1 806] [energy 949.995213 ei 50.001 es 0.000 et 0.000 er 0.003] ------- [REQUEST 1/1 0/0]
D 50.004786873 _3_ MAC  COL 0 ARP 86 [0 ffffffff 1 806] [energy 949.995213 ei 50.001 es 0.000 et 0.001 er 0.003] ------- [REQUEST 1/1 0/0]
D 50.004786910 _6_ MAC  COL 0 ARP 86 [0 ffffffff 1 806] [energy 949.995213 ei 50.001 es 0.000 et 0.001 er 0.003] ------- [REQUEST 1/1 0/0]
s 50.004936039 _0_ MAC  --- 0 RTS 44 [52e 4 0 0] [energy 949.995213 ei 50.001 es 0.000 et 0.000 er 0.003] 
N -t 50.004936 -n 8 -e 949.994712
N -t 50.004936 -n 6 -e 949.994712
N -t 50.004936 -n 7 -e 949.994712
N -t 50.004936 -n 5 -e 949.994712
N -t 50.004936 -n 1 -e 949.994712
N -t 50.004936 -n 4 -e 949.994712
N -t 50.004937 -n 3 -e 949.994711
N -t 50.004937 -n 9 -e 949.994711
N -t 50.004937 -n 2 -e 949.994711
r 50.005288482 _4_ MAC  --- 0 RTS 44 [52e 4 0 0] [energy 949.994712 ei 50.001 es 0.000 et 0.001 er 0.003] 
s 50.005298482 _4_ MAC  --- 0 CTS 38 [3f4 0 0 0] [energy 949.994712 ei 50.001 es 0.000 et 0.001 er 0.003] 
N -t 50.005299 -n 2 -e 949.994397
N -t 50.005299 -n 7 -e 949.994397
N -t 50.005299 -n 0 -e 949.994397
N -t 50.005299 -n 6 -e 949.994397
N -t 50.005299 -n 9 -e 949.994397
N -t 50.005299 -n 5 -e 949.994397
N -t 50.005299 -n 8 -e 949.994397
N -t 50.005299 -n 3 -e 949.994397
N -t 50.005299 -n 1 -e 949.994397
r 50.005602926 _0_ MAC  --- 0 CTS 38 [3f4 0 0 0] [energy 949.994397 ei 50.002 es 0.000 et 0.000 er 0.004] 
s 50.005612926 _0_ MAC  --- 0 ARP 86 [13a 4 0 806] [energy 949.994397 ei 50.002 es 0.000 et 0.000 er 0.004] ------- [REPLY 0/0 4/4]
N -t 50.005613 -n 8 -e 949.993699
N -t 50.005613 -n 6 -e 949.993699
N -t 50.005613 -n 7 -e 949.993699
N -t 50.005613 -n 5 -e 949.993699
N -t 50.005613 -n 1 -e 949.993699
N -t 50.005613 -n 4 -e 949.993699
N -t 50.005613 -n 3 -e 949.993699
N -t 50.005613 -n 9 -e 949.993699
N -t 50.005613 -n 2 -e 949.993699
r 50.006301369 _4_ MAC  --- 0 ARP 28 [13a 4 0 806] [energy 949.993699 ei 50.002 es 0.000 et 0.001 er 0.004] ------- [REPLY 0/0 4/4]
s 50.006311369 _4_ MAC  --- 0 ACK 38 [0 0 0 0] [energy 949.993699 ei 50.002 es 0.000 et 0.001 er 0.004] 
N -t 50.006312 -n 2 -e 949.993384
N -t 50.006312 -n 7 -e 949.993384
N -t 50.006312 -n 0 -e 949.993384
N -t 50.006312 -n 6 -e 949.993384
N -t 50.006312 -n 9 -e 949.993384
N -t 50.006312 -n 5 -e 949.993384
N -t 50.006312 -n 8 -e 949.993384
N -t 50.006312 -n 3 -e 949.993384
N -t 50.006312 -n 1 -e 949.993384
r 50.006615812 _0_ MAC  --- 0 ACK 38 [0 0 0 0] [energy 949.993384 ei 50.002 es 0.000 et 0.001 er 0.004] 
s 50.006846008 _5_ MAC  --- 0 ARP 86 [0 ffffffff 5 806] [energy 949.993384 ei 50.002 es 0.000 et 0.000 er 0.005] ------- [REQUEST 5/5 0/0]
N -t 50.006846 -n 9 -e 949.992466
N -t 50.006846 -n 1 -e 949.992466
N -t 50.006846 -n 0 -e 949.992466
N -t 50.006846 -n 7 -e 949.992466
N -t 50.006846 -n 8 -e 949.992466
N -t 50.006847 -n 2 -e 949.992465
N -t 50.006847 -n 6 -e 949.992465
N -t 50.006847 -n 4 -e 949.992465
N -t 50.006847 -n 3 -e 949.992465
r 50.007534293 _9_ MAC  --- 0 ARP 28 [0 ffffffff 5 806] [energy 949.992466 ei 50.002 es 0.000 et 0.001 er 0.005] ------- [REQUEST 5/5 0/0]
r 50.007534338 _1_ MAC  --- 0 ARP 28 [0 ffffffff 5 806] [energy 949.992466 ei 50.002 es 0.000 et 0.001 er 0.005] ------- [REQUEST 5/5 0/0]
r 50.007534345 _0_ MAC  --- 0 ARP 28 [0 ffffffff 5 806] [energy 949.992466 ei 50.002 es 0.000 et 0.001 er 0.005] ------- [REQUEST 5/5 0/0]
r 50.007534347 _7_ MAC  --- 0 ARP 28 [0 ffffffff 5 806] [energy 949.992466 ei 50.002 es 0.000 et 0.001 er 0.005] ------- [REQUEST 5/5 0/0]
r 50.007534488 _8_ MAC  --- 0 ARP 28 [0 ffffffff 5 806] [energy 949.992466 ei 50.002 es 0.000 et 0.001 er 0.005] ------- [REQUEST 5/5 0/0]
r 50.007534552 _2_ MAC  --- 0 ARP 28 [0 ffffffff 5 806] [energy 949.992465 ei 50.002 es 0.000 et 0.001 er 0.005] ------- [REQUEST 5/5 0/0]
r 50.007534645 _6_ MAC  --- 0 ARP 28 [0 ffffffff 5 806] [energy 949.992465 ei 50.002 es 0.000 et 0.001 er 0.005] ------- [REQUEST 5/5 0/0]
r 50.007534647 _4_ MAC  --- 0 ARP 28 [0 ffffffff 5 806] [energy 949.992465 ei 50.002 es 0.000 et 0.001 er 0.004] ------- [REQUEST 5/5 0/0]
r 50.007534766 _3_ MAC  --- 0 ARP 28 [0 ffffffff 5 806] [energy 949.992465 ei 50.002 es 0.000 et 0.001 er 0.005] ------- [REQUEST 5/5 0/0]
s 50.007664647 _4_ MAC  --- 0 RTS 44 [5de 0 4 0] [energy 949.992465 ei 50.002 es 0.000 et 0.001 er 0.004] 
N -t 50.007665 -n 2 -e 949.991983
N -t 50.007665 -n 7 -e 949.991983
N -t 50.007665 -n 0 -e 949.991983
N -t 50.007665 -n 6 -e 949.991983
N -t 50.007665 -n 9 -e 949.991983
N -t 50.007665 -n 5 -e 949.991983
N -t 50.007665 -n 8 -e 949.991983
N -t 50.007665 -n 3 -e 949.991983
N -t 50.007665 -n 1 -e 949.991983
r 50.008017090 _0_ MAC  --- 0 RTS 44 [5de 0 4 0] [energy 949.991983 ei 50.002 es 0.000 et 0.001 er 0.005] 
s 50.008027090 _0_ MAC  --- 0 CTS 38 [4a4 4 0 0] [energy 949.991983 ei 50.002 es 0.000 et 0.001 er 0.005] 
N -t 50.008027 -n 8 -e 949.991669
N -t 50.008027 -n 6 -e 949.991669
N -t 50.008027 -n 7 -e 949.991669
N -t 50.008027 -n 5 -e 949.991669
N -t 50.008027 -n 1 -e 949.991669
N -t 50.008028 -n 4 -e 949.991668
N -t 50.008028 -n 3 -e 949.991668
N -t 50.008028 -n 9 -e 949.991668
N -t 50.008028 -n 2 -e 949.991668
r 50.008331533 _4_ MAC  --- 0 CTS 38 [4a4 4 0 0] [energy 949.991668 ei 50.002 es 0.000 et 0.002 er 0.005] 
s 50.008341533 _4_ MAC  --- 3 cbr 108 [13a 0 4 800] [energy 949.991668 ei 50.002 es 0.000 et 0.002 er 0.005] ------- [4:0 0:3 32 0] [0] 0 0
N -t 50.008342 -n 2 -e 949.990794
N -t 50.008342 -n 7 -e 949.990794
N -t 50.008342 -n 0 -e 949.990794
N -t 50.008342 -n 6 -e 949.990794
N -t 50.008342 -n 9 -e 949.990794
N -t 50.008342 -n 5 -e 949.990794
N -t 50.008342 -n 8 -e 949.990794
N -t 50.008342 -n 3 -e 949.990794
N -t 50.008342 -n 1 -e 949.990794
r 50.009205976 _0_ MAC  --- 3 cbr 50 [13a 0 4 800] [energy 949.990794 ei 50.002 es 0.000 et 0.001 er 0.006] ------- [4:0 0:3 32 0] [0] 1 0
s 50.009215976 _0_ MAC  --- 0 ACK 38 [0 4 0 0] [energy 949.990794 ei 50.002 es 0.000 et 0.001 er 0.006] 
N -t 50.009216 -n 8 -e 949.990480
N -t 50.009216 -n 6 -e 949.990480
N -t 50.009216 -n 7 -e 949.990480
N -t 50.009216 -n 5 -e 949.990480
N -t 50.009216 -n 1 -e 949.990480
N -t 50.009216 -n 4 -e 949.990480
N -t 50.009216 -n 3 -e 949.990480
N -t 50.009216 -n 9 -e 949.990480
N -t 50.009217 -n 2 -e 949.990479
r 50.009230976 _0_ AGT  --- 3 cbr 50 [13a 0 4 800] [energy 949.990480 ei 50.002 es 0.000 et 0.002 er 0.006] ------- [4:0 0:3 32 0] [0] 1 0
r 50.009520420 _4_ MAC  --- 0 ACK 38 [0 4 0 0] [energy 949.990480 ei 50.002 es 0.000 et 0.003 er 0.005] 
s 50.009869976 _0_ MAC  --- 0 RTS 44 [52e 2 0 0] [energy 949.990480 ei 50.002 es 0.000 et 0.002 er 0.006] 
N -t 50.009870 -n 8 -e 949.989778
N -t 50.009870 -n 6 -e 949.989778
N -t 50.009870 -n 7 -e 949.989778
N -t 50.009870 -n 5 -e 949.989778
N -t 50.009870 -n 1 -e 949.989778
N -t 50.009870 -n 4 -e 949.989778
N -t 50.009870 -n 3 -e 949.989778
N -t 50.009870 -n 9 -e 949.989778
N -t 50.009871 -n 2 -e 949.989777
r 50.010222508 _2_ MAC  --- 0 RTS 44 [52e 2 0 0] [energy 949.989777 ei 50.002 es 0.000 et 0.001 er 0.007] 
s 50.010232508 _2_ MAC  --- 0 CTS 38 [3f4 0 0 0] [energy 949.989777 ei 50.002 es 0.000 et 0.001 er 0.007] 
N -t 50.010233 -n 7 -e 949.989463
N -t 50.010233 -n 4 -e 949.989463
N -t 50.010233 -n 9 -e 949.989463
N -t 50.010233 -n 0 -e 949.989463
N -t 50.010233 -n 5 -e 949.989463
N -t 50.010233 -n 6 -e 949.989463
N -t 50.010233 -n 1 -e 949.989463
N -t 50.010233 -n 8 -e 949.989463
N -t 50.010233 -n 3 -e 949.989463
r 50.010537039 _0_ MAC  --- 0 CTS 38 [3f4 0 0 0] [energy 949.989463 ei 50.002 es 0.000 et 0.002 er 0.006] 
s 50.010547039 _0_ MAC  --- 0 ARP 86 [13a 2 0 806] [energy 949.989463 ei 50.002 es 0.000 et 0.002 er 0.006] ------- [REPLY 0/0 2/2]
N -t 50.010547 -n 8 -e 949.988765
N -t 50.010547 -n 6 -e 949.988765
N -t 50.010547 -n 7 -e 949.988765
N -t 50.010547 -n 5 -e 949.988765
N -t 50.010547 -n 1 -e 949.988765
N -t 50.010547 -n 4 -e 949.988765
N -t 50.010548 -n 3 -e 949.988764
N -t 50.010548 -n 9 -e 949.988764
N -t 50.010548 -n 2 -e 949.988764
r 50.011235571 _2_ MAC  --- 0 ARP 28 [13a 2 0 806] [energy 949.988764 ei 50.002 es 0.000 et 0.001 er 0.008] ------- [REPLY 0/0 2/2]
s 50.011245571 _2_ MAC  --- 0 ACK 38 [0 0 0 0] [energy 949.988764 ei 50.002 es 0.000 et 0.001 er 0.008] 
N -t 50.011246 -n 7 -e 949.988450
N -t 50.011246 -n 4 -e 949.988450
N -t 50.011246 -n 9 -e 949.988450
N -t 50.011246 -n 0 -e 949.988450
N -t 50.011246 -n 5 -e 949.988450
N -t 50.011246 -n 6 -e 949.988450
N -t 50.011246 -n 1 -e 949.988450
N -t 50.011246 -n 8 -e 949.988450
N -t 50.011247 -n 3 -e 949.988449
r 50.011550102 _0_ MAC  --- 0 ACK 38 [0 0 0 0] [energy 949.988450 ei 50.002 es 0.000 et 0.003 er 0.007] 
s 50.011980102 _0_ MAC  --- 0 RTS 44 [52e 7 0 0] [energy 949.988450 ei 50.002 es 0.000 et 0.003 er 0.007] 
N -t 50.011980 -n 8 -e 949.987668
N -t 50.011980 -n 6 -e 949.987668
N -t 50.011980 -n 7 -e 949.987668
N -t 50.011980 -n 5 -e 949.987668
N -t 50.011980 -n 1 -e 949.987668
N -t 50.011981 -n 4 -e 949.987667
N -t 50.011981 -n 3 -e 949.987667
N -t 50.011981 -n 9 -e 949.987667
N -t 50.011981 -n 2 -e 949.987667
r 50.012332412 _7_ MAC  --- 0 RTS 44 [52e 7 0 0] [energy 949.987668 ei 50.003 es 0.000 et 0.001 er 0.009] 
s 50.012342412 _7_ MAC  --- 0 CTS 38 [3f4 0 0 0] [energy 949.987668 ei 50.003 es 0.000 et 0.001 er 0.009] 
N -t 50.012343 -n 2 -e 949.987353
N -t 50.012343 -n 9 -e 949.987353
N -t 50.012343 -n 0 -e 949.987353
N -t 50.012343 -n 4 -e 949.987353
N -t 50.012343 -n 5 -e 949.987353
N -t 50.012343 -n 6 -e 949.987353
N -t 50.012343 -n 1 -e 949.987353
N -t 50.012343 -n 8 -e 949.987353
N -t 50.012343 -n 3 -e 949.987353
r 50.012646723 _0_ MAC  --- 0 CTS 38 [3f4 0 0 0] [energy 949.987353 ei 50.003 es 0.000 et 0.003 er 0.007] 
s 50.012656723 _0_ MAC  --- 0 ARP 86 [13a 7 0 806] [energy 949.987353 ei 50.003 es 0.000 et 0.003 er 0.007] ------- [REPLY 0/0 7/7]
N -t 50.012657 -n 8 -e 949.986655
N -t 50.012657 -n 6 -e 949.986655
N -t 50.012657 -n 7 -e 949.986655
N -t 50.012657 -n 5 -e 949.986655
N -t 50.012657 -n 1 -e 949.986655
N -t 50.012657 -n 4 -e 949.986655
N -t 50.012657 -n 3 -e 949.986655
N -t 50.012657 -n 9 -e 949.986655
N -t 50.012657 -n 2 -e 949.986655
r 50.013345033 _7_ MAC  --- 0 ARP 28 [13a 7 0 806] [energy 949.986655 ei 50.003 es 0.000 et 0.001 er 0.010] ------- [REPLY 0/0 7/7]
s 50.013355033 _7_ MAC  --- 0 ACK 38 [0 0 0 0] [energy 949.986655 ei 50.003 es 0.000 et 0.001 er 0.010] 
N -t 50.013355 -n 2 -e 949.986341
N -t 50.013355 -n 9 -e 949.986341
N -t 50.013355 -n 0 -e 949.986341
N -t 50.013355 -n 4 -e 949.986341
N -t 50.013355 -n 5 -e 949.986341
N -t 50.013356 -n 6 -e 949.986340
N -t 50.013356 -n 1 -e 949.986340
N -t 50.013356 -n 8 -e 949.986340
N -t 50.013356 -n 3 -e 949.986340
r 50.013659343 _0_ MAC  --- 0 ACK 38 [0 0 0 0] [energy 949.986341 ei 50.003 es 0.000 et 0.004 er 0.007] 
s 50.013849267 _2_ MAC  --- 0 RTS 44 [5de 0 2 0] [energy 949.986341 ei 50.003 es 0.000 et 0.001 er 0.010] 
N -t 50.013850 -n 7 -e 949.985798
N -t 50.013850 -n 4 -e 949.985798
N -t 50.013850 -n 9 -e 949.985798
N -t 50.013850 -n 0 -e 949.985798
N -t 50.013850 -n 5 -e 949.985798
N -t 50.013850 -n 6 -e 949.985798
N -t 50.013850 -n 1 -e 949.985798
N -t 50.013850 -n 8 -e 949.985798
N -t 50.013850 -n 3 -e 949.985798
r 50.014201798 _0_ MAC  --- 0 RTS 44 [5de 0 2 0] [energy 949.985798 ei 50.003 es 0.000 et 0.004 er 0.008] 
s 50.014211798 _0_ MAC  --- 0 CTS 38 [4a4 2 0 0] [energy 949.985798 ei 50.003 es 0.000 et 0.004 er 0.008] 
N -t 50.014212 -n 8 -e 949.985484
N -t 50.014212 -n 6 -e 949.985484
N -t 50.014212 -n 7 -e 949.985484
N -t 50.014212 -n 5 -e 949.985484
N -t 50.014212 -n 1 -e 949.985484
N -t 50.014212 -n 4 -e 949.985484
N -t 50.014212 -n 3 -e 949.985484
N -t 50.014212 -n 9 -e 949.985484
N -t 50.014212 -n 2 -e 949.985484
r 50.014516330 _2_ MAC  --- 0 CTS 38 [4a4 2 0 0] [energy 949.985484 ei 50.003 es 0.000 et 0.002 er 0.010] 
s 50.014526330 _2_ MAC  --- 1 cbr 108 [13a 0 2 800] [energy 949.985484 ei 50.003 es 0.000 et 0.002 er 0.010] ------- [2:0 0:1 32 0] [0] 0 0
N -t 50.014527 -n 7 -e 949.984609
N -t 50.014527 -n 4 -e 949.984609
N -t 50.014527 -n 9 -e 949.984609
N -t 50.014527 -n 0 -e 949.984609
N -t 50.014527 -n 5 -e 949.984609
N -t 50.014527 -n 6 -e 949.984609
N -t 50.014527 -n 1 -e 949.984609
N -t 50.014527 -n 8 -e 949.984609
N -t 50.014527 -n 3 -e 949.984609
r 50.015390861 _0_ MAC  --- 1 cbr 50 [13a 0 2 800] [energy 949.984609 ei 50.003 es 0.000 et 0.004 er 0.008] ------- [2:0 0:1 32 0] [0] 1 0
s 50.015400861 _0_ MAC  --- 0 ACK 38 [0 2 0 0] [energy 949.984609 ei 50.003 es 0.000 et 0.004 er 0.008] 
N -t 50.015401 -n 8 -e 949.984295
N -t 50.015401 -n 6 -e 949.984295
N -t 50.015401 -n 7 -e 949.984295
N -t 50.015401 -n 5 -e 949.984295
N -t 50.015401 -n 1 -e 949.984295
N -t 50.015401 -n 4 -e 949.984295
N -t 50.015401 -n 3 -e 949.984295
N -t 50.015401 -n 9 -e 949.984295
N -t 50.015401 -n 2 -e 949.984295
r 50.015415861 _0_ AGT  --- 1 cbr 50 [13a 0 2 800] [energy 949.984295 ei 50.003 es 0.000 et 0.004 er 0.008] ------- [2:0 0:1 32 0] [0] 1 0
r 50.015705393 _2_ MAC  --- 0 ACK 38 [0 2 0 0] [energy 949.984295 ei 50.003 es 0.000 et 0.003 er 0.010] 
s 50.015794861 _0_ MAC  --- 0 RTS 44 [52e 5 0 0] [energy 949.984295 ei 50.003 es 0.000 et 0.004 er 0.008] 
N -t 50.015795 -n 8 -e 949.983853
N -t 50.015795 -n 6 -e 949.983853
N -t 50.015795 -n 7 -e 949.983853
N -t 50.015795 -n 5 -e 949.983853
N -t 50.015795 -n 1 -e 949.983853
N -t 50.015795 -n 4 -e 949.983853
N -t 50.015795 -n 3 -e 949.983853
N -t 50.015795 -n 9 -e 949.983853
N -t 50.015795 -n 2 -e 949.983853
r 50.016147198 _5_ MAC  --- 0 RTS 44 [52e 5 0 0] [energy 949.983853 ei 50.003 es 0.000 et 0.001 er 0.012] 
s 50.016157198 _5_ MAC  --- 0 CTS 38 [3f4 0 0 0] [energy 949.983853 ei 50.003 es 0.000 et 0.001 er 0.012] 
N -t 50.016157 -n 9 -e 949.983539
N -t 50.016158 -n 1 -e 949.983538
N -t 50.016158 -n 0 -e 949.983538
N -t 50.016158 -n 7 -e 949.983538
N -t 50.016158 -n 8 -e 949.983538
N -t 50.016158 -n 2 -e 949.983538
N -t 50.016158 -n 6 -e 949.983538
N -t 50.016158 -n 4 -e 949.983538
N -t 50.016158 -n 3 -e 949.983538
r 50.016461535 _0_ MAC  --- 0 CTS 38 [3f4 0 0 0] [energy 949.983538 ei 50.003 es 0.000 et 0.005 er 0.009] 
s 50.016471535 _0_ MAC  --- 0 ARP 86 [13a 5 0 806] [energy 949.983538 ei 50.003 es 0.000 et 0.005 er 0.009] ------- [REPLY 0/0 5/5]
N -t 50.016472 -n 8 -e 949.982840
N -t 50.016472 -n 6 -e 949.982840
N -t 50.016472 -n 7 -e 949.982840
N -t 50.016472 -n 5 -e 949.982840
N -t 50.016472 -n 1 -e 949.982840
N -t 50.016472 -n 4 -e 949.982840
N -t 50.016472 -n 3 -e 949.982840
N -t 50.016472 -n 9 -e 949.982840
N -t 50.016472 -n 2 -e 949.982840
r 50.017159872 _5_ MAC  --- 0 ARP 28 [13a 5 0 806] [energy 949.982840 ei 50.003 es 0.000 et 0.001 er 0.013] ------- [REPLY 0/0 5/5]
s 50.017169872 _5_ MAC  --- 0 ACK 38 [0 0 0 0] [energy 949.982840 ei 50.003 es 0.000 et 0.001 er 0.013] 
N -t 50.017170 -n 9 -e 949.982526
N -t 50.017170 -n 1 -e 949.982526
N -t 50.017170 -n 0 -e 949.982526
N -t 50.017170 -n 7 -e 949.982526
N -t 50.017170 -n 8 -e 949.982526
N -t 50.017170 -n 2 -e 949.982526
N -t 50.017171 -n 6 -e 949.982525
N -t 50.017171 -n 4 -e 949.982525
N -t 50.017171 -n 3 -e 949.982525
r 50.017474209 _0_ MAC  --- 0 ACK 38 [0 0 0 0] [energy 949.982526 ei 50.003 es 0.000 et 0.005 er 0.009] 
s 50.017663872 _5_ MAC  --- 0 RTS 44 [5de 0 5 0] [energy 949.982526 ei 50.003 es 0.000 et 0.001 er 0.013] 
N -t 50.017664 -n 9 -e 949.981984
N -t 50.017664 -n 1 -e 949.981984
N -t 50.017664 -n 0 -e 949.981984
N -t 50.017664 -n 7 -e 949.981984