M 5.00000 0 (275.21, 185.71, 0.00), (275.21, 185.71), 0.00
M 5.00000 1 (230.81, 228.92, 0.00), (230.81, 228.92), 0.00
M 5.00000 2 (184.74, 261.87, 0.00), (184.74, 261.87), 0.00
M 5.00000 3 (274.41, 264.46, 0.00), (274.41, 264.46), 0.00
M 5.00000 4 (184.10, 189.50, 0.00), (184.10, 189.50), 0.00
s 8.616000000 _1_ MAC  --- 0 SYNC 9 [0.13 1 1] [energy 1000.000000 ei 0.000 es 0.000 et 0.000 er 0.000] 
N -t 8.616000 -n 3 -e 991.381000
N -t 8.616000 -n 2 -e 991.381000
N -t 8.616000 -n 4 -e 991.381000
N -t 8.616000 -n 0 -e 991.381000
s 9.333000207 _0_ MAC  --- 0 SYNC 9 [0.13 0 1] [energy 991.381000 ei 8.616 es 0.000 et 0.000 er 0.003] 
N -t 9.333000 -n 1 -e 990.664000
N -t 9.333000 -n 3 -e 990.664000
N -t 9.333001 -n 4 -e 990.663999
N -t 9.333001 -n 2 -e 990.663999
s 10.056000188 _3_ MAC  --- 0 SYNC 9 [0.12 3 1] [energy 990.664000 ei 9.330 es 0.000 et 0.000 er 0.006] 
N -t 10.056000 -n 1 -e 989.941000
N -t 10.056000 -n 0 -e 989.941000
N -t 10.056000 -n 2 -e 989.941000
N -t 10.056001 -n 4 -e 989.940999
s 10.774000204 _4_ MAC  --- 0 SYNC 9 [0.12 4 1] [energy 989.940999 ei 10.050 es 0.000 et 0.000 er 0.009] 
N -t 10.774000 -n 1 -e 989.223000
N -t 10.774000 -n 2 -e 989.223000
N -t 10.774001 -n 0 -e 989.222999
N -t 10.774001 -n 3 -e 989.222999
s 11.497000189 _2_ MAC  --- 0 SYNC 9 [0.12 2 1] [energy 989.223000 ei 10.765 es 0.000 et 0.000 er 0.012] 
N -t 11.497000 -n 1 -e 988.500000
N -t 11.497000 -n 4 -e 988.500000
N -t 11.497000 -n 3 -e 988.500000
N -t 11.497001 -n 0 -e 988.499999
s 12.204000413 _1_ MAC  --- 0 SYNC 9 [0.13 1 0] [energy 988.500000 ei 11.485 es 0.000 et 0.003 er 0.012] 
N -t 12.204001 -n 3 -e 987.792999
N -t 12.204001 -n 2 -e 987.792999
N -t 12.204001 -n 4 -e 987.792999
N -t 12.204001 -n 0 -e 987.792999
s 16.504000620 _0_ MAC  --- 0 SYNC 9 [0.13 0 1] [energy 987.792999 ei 12.189 es 0.000 et 0.003 er 0.015] 
N -t 16.504001 -n 1 -e 983.492999
N -t 16.504001 -n 3 -e 983.492999
N -t 16.504001 -n 4 -e 983.492999
N -t 16.504001 -n 2 -e 983.492999
N -t 16.634201 -n 0 -e 983.364799
N -t 17.208001 -n 0 -e 983.363226
s 17.227000601 _3_ MAC  --- 0 SYNC 9 [0.12 3 1] [energy 983.492999 ei 16.486 es 0.000 et 0.003 er 0.018] 
N -t 17.227001 -n 1 -e 982.769999
N -t 17.227001 -n 0 -e 983.341225
N -t 17.227001 -n 2 -e 982.769999
N -t 17.227001 -n 4 -e 982.769999
N -t 17.351201 -n 3 -e 982.647799
N -t 17.351201 -n 0 -e 983.219026
N -t 17.925001 -n 3 -e 982.646226
N -t 17.925001 -n 0 -e 983.217452
s 17.951000617 _4_ MAC  --- 0 SYNC 9 [0.11 4 1] [energy 982.769999 ei 17.206 es 0.000 et 0.003 er 0.021] 
N -t 17.951001 -n 1 -e 982.045999
N -t 17.951001 -n 2 -e 982.045999
N -t 17.951001 -n 0 -e 983.188451
N -t 17.951001 -n 3 -e 982.617225
N -t 18.068201 -n 3 -e 982.502026
N -t 18.068201 -n 4 -e 981.930799
N -t 18.068201 -n 0 -e 983.073252
N -t 18.642001 -n 3 -e 982.500452
N -t 18.642001 -n 4 -e 981.929226
N -t 18.642001 -n 0 -e 983.071678
s 18.652000602 _2_ MAC  --- 0 SYNC 9 [0.13 2 1] [energy 982.045999 ei 17.927 es 0.000 et 0.003 er 0.024] 
N -t 18.652001 -n 1 -e 981.344999
N -t 18.652001 -n 4 -e 981.916225
N -t 18.652001 -n 3 -e 982.487451
N -t 18.652001 -n 0 -e 983.058678
N -t 18.785201 -n 3 -e 982.356252
N -t 18.785201 -n 2 -e 981.213799
N -t 18.785201 -n 4 -e 981.785026
N -t 18.785201 -n 0 -e 982.927478
N -t 19.359001 -n 3 -e 982.354678
N -t 19.359001 -n 2 -e 981.212226
N -t 19.359001 -n 4 -e 981.783452
N -t 19.359001 -n 0 -e 982.925904
s 19.393000791 _1_ MAC  --- 0 SYNC 9 [0.11 1 0] [energy 981.344999 ei 18.625 es 0.000 et 0.006 er 0.024] 
N -t 19.393001 -n 3 -e 982.317678
N -t 19.393001 -n 2 -e 981.175225
N -t 19.393001 -n 4 -e 981.746451
N -t 19.393001 -n 0 -e 982.888904
N -t 19.502201 -n 1 -e 980.496799
N -t 19.502201 -n 3 -e 982.210478
N -t 19.502201 -n 2 -e 981.068025
N -t 19.502201 -n 4 -e 981.639251
N -t 19.502201 -n 0 -e 982.781704
N -t 20.076001 -n 1 -e 980.495225
N -t 20.076001 -n 3 -e 982.208904
N -t 20.076001 -n 2 -e 981.066451
N -t 20.076001 -n 4 -e 981.637678
N -t 20.076001 -n 0 -e 982.780130
N -t 20.219201 -n 1 -e 980.351025
N -t 20.219201 -n 3 -e 982.064704
N -t 20.219201 -n 2 -e 980.922251
N -t 20.219201 -n 4 -e 981.493478
N -t 20.219201 -n 0 -e 982.635930
N -t 20.793001 -n 1 -e 980.349452
N -t 20.793001 -n 3 -e 982.063130
N -t 20.793001 -n 2 -e 980.920678
N -t 20.793001 -n 4 -e 981.491904
N -t 20.793001 -n 0 -e 982.634356
N -t 20.936201 -n 1 -e 980.205252
N -t 20.936201 -n 3 -e 981.918930
N -t 20.936201 -n 2 -e 980.776478
N -t 20.936201 -n 4 -e 981.347704
N -t 20.936201 -n 0 -e 982.490156
N -t 21.000000 -n 0 -e 982.490092
N -t 21.000000 -n 1 -e 980.205188
N -t 21.000000 -n 2 -e 980.776414
N -t 21.000000 -n 3 -e 981.918866
N -t 21.000000 -n 4 -e 981.347640
N -t 21.510001 -n 1 -e 980.203678
N -t 21.510001 -n 3 -e 981.917356
N -t 21.510001 -n 2 -e 980.774904
N -t 21.510001 -n 4 -e 981.346130
N -t 21.510001 -n 0 -e 982.488582
N -t 21.653201 -n 1 -e 980.059478
N -t 21.653201 -n 3 -e 981.773156
N -t 21.653201 -n 2 -e 980.630704
N -t 21.653201 -n 4 -e 981.201930
N -t 21.653201 -n 0 -e 982.344382
N -t 22.227001 -n 1 -e 980.057904
N -t 22.227001 -n 3 -e 981.771582
N -t 22.227001 -n 2 -e 980.629130
N -t 22.227001 -n 4 -e 981.200356
N -t 22.227001 -n 0 -e 982.342809
N -t 22.370201 -n 1 -e 979.913704
N -t 22.370201 -n 3 -e 981.627382
N -t 22.370201 -n 2 -e 980.484930
N -t 22.370201 -n 4 -e 981.056156
N -t 22.370201 -n 0 -e 982.198609
N -t 22.944001 -n 1 -e 979.912130
N -t 22.944001 -n 3 -e 981.625809
N -t 22.944001 -n 2 -e 980.483356
N -t 22.944001 -n 4 -e 981.054582
N -t 22.944001 -n 0 -e 982.197035
N -t 23.087201 -n 1 -e 979.767930
N -t 23.087201 -n 3 -e 981.481609
N -t 23.087201 -n 2 -e 980.339156
N -t 23.087201 -n 4 -e 980.910382
N -t 23.087201 -n 0 -e 982.052835
N -t 23.661001 -n 1 -e 979.766356
N -t 23.661001 -n 3 -e 981.480035
N -t 23.661001 -n 2 -e 980.337582
N -t 23.661001 -n 4 -e 980.908809
N -t 23.661001 -n 0 -e 982.051261
s 23.694000997 _0_ MAC  --- 0 SYNC 9 [0.11 0 1] [energy 982.051261 ei 17.890 es 0.006 et 0.006 er 0.027] 
N -t 23.694001 -n 1 -e 979.730356
N -t 23.694001 -n 3 -e 981.444035
N -t 23.694001 -n 4 -e 980.872808
N -t 23.694001 -n 2 -e 980.301582
N -t 23.804201 -n 3 -e 981.335835
N -t 23.804201 -n 2 -e 980.193382
N -t 23.804201 -n 4 -e 980.764609
N -t 23.804201 -n 0 -e 981.907061
N -t 23.804201 -n 1 -e 979.622156
N -t 24.378001 -n 3 -e 981.334261
N -t 24.378001 -n 2 -e 980.191809
N -t 24.378001 -n 4 -e 980.763035
N -t 24.378001 -n 0 -e 981.905487
N -t 24.378001 -n 1 -e 979.620582
s 24.401000978 _3_ MAC  --- 0 SYNC 9 [0.12 3 1] [energy 981.334261 ei 18.604 es 0.006 et 0.006 er 0.030] 
N -t 24.401001 -n 1 -e 979.594582
N -t 24.401001 -n 0 -e 981.879487
N -t 24.401001 -n 2 -e 980.165808
N -t 24.401001 -n 4 -e 980.737034
N -t 24.521201 -n 3 -e 981.190061
N -t 24.521201 -n 2 -e 980.047609
N -t 24.521201 -n 4 -e 980.618835
N -t 24.521201 -n 0 -e 981.761287
N -t 24.521201 -n 1 -e 979.476382
N -t 25.095001 -n 3 -e 981.188487
N -t 25.095001 -n 2 -e 980.046035
N -t 25.095001 -n 4 -e 980.617261
N -t 25.095001 -n 0 -e 981.759713
N -t 25.095001 -n 1 -e 979.474808
s 25.111000994 _4_ MAC  --- 0 SYNC 9 [0.12 4 1] [energy 980.617261 ei 19.318 es 0.006 et 0.006 er 0.033] 
N -t 25.111001 -n 1 -e 979.455808
N -t 25.111001 -n 2 -e 980.027035
N -t 25.111001 -n 0 -e 981.740713
N -t 25.111001 -n 3 -e 981.169487
N -t 25.238201 -n 3 -e 981.044287
N -t 25.238201 -n 2 -e 979.901835
N -t 25.238201 -n 4 -e 980.473061
N -t 25.238201 -n 0 -e 981.615513
N -t 25.238201 -n 1 -e 979.330608
N -t 25.812001 -n 3 -e 981.042713
N -t 25.812001 -n 2 -e 979.900261
N -t 25.812001 -n 4 -e 980.471487
N -t 25.812001 -n 0 -e 981.613940
N -t 25.812001 -n 1 -e 979.329035
s 25.844000979 _2_ MAC  --- 0 SYNC 9 [0.11 2 1] [energy 979.900261 ei 20.032 es 0.006 et 0.006 er 0.036] 
N -t 25.844001 -n 1 -e 979.294035
N -t 25.844001 -n 4 -e 980.436487
N -t 25.844001 -n 3 -e 981.007713
N -t 25.844001 -n 0 -e 981.578939
N -t 25.955201 -n 3 -e 980.898513
N -t 25.955201 -n 2 -e 979.756061
N -t 25.955201 -n 4 -e 980.327287
N -t 25.955201 -n 0 -e 981.469740
N -t 25.955201 -n 1 -e 979.184835
N -t 26.529001 -n 3 -e 980.896940
N -t 26.529001 -n 2 -e 979.754487
N -t 26.529001 -n 4 -e 980.325713
N -t 26.529001 -n 0 -e 981.468166
N -t 26.529001 -n 1 -e 979.183261
s 26.556001168 _1_ MAC  --- 0 SYNC 9 [0.11 1 0] [energy 979.183261 ei 20.746 es 0.006 et 0.009 er 0.036] 
N -t 26.556001 -n 3 -e 980.866939
N -t 26.556001 -n 2 -e 979.724487
N -t 26.556001 -n 4 -e 980.295713
N -t 26.556001 -n 0 -e 981.438165
N -t 26.672201 -n 1 -e 979.039061
N -t 26.672201 -n 3 -e 980.752739
N -t 26.672201 -n 2 -e 979.610287
N -t 26.672201 -n 4 -e 980.181513
N -t 26.672201 -n 0 -e 981.323965
N -t 27.246001 -n 1 -e 979.037487
N -t 27.246001 -n 3 -e 980.751165
N -t 27.246001 -n 2 -e 979.608713
N -t 27.246001 -n 4 -e 980.179939
N -t 27.246001 -n 0 -e 981.322392
N -t 27.389201 -n 1 -e 978.893287
N -t 27.389201 -n 3 -e 980.606965
N -t 27.389201 -n 2 -e 979.464513
N -t 27.389201 -n 4 -e 980.035739
N -t 27.389201 -n 0 -e 981.178192
N -t 27.963001 -n 1 -e 978.891713
N -t 27.963001 -n 3 -e 980.605392
N -t 27.963001 -n 2 -e 979.462939
N -t 27.963001 -n 4 -e 980.034165
N -t 27.963001 -n 0 -e 981.176618
N -t 28.106201 -n 1 -e 978.747513
N -t 28.106201 -n 3 -e 980.461192
N -t 28.106201 -n 2 -e 979.318739
N -t 28.106201 -n 4 -e 979.889965
N -t 28.106201 -n 0 -e 981.032418
N -t 28.680001 -n 1 -e 978.745939
N -t 28.680001 -n 3 -e 980.459618
N -t 28.680001 -n 2 -e 979.317165
N -t 28.680001 -n 4 -e 979.888392
N -t 28.680001 -n 0 -e 981.030844
N -t 28.823201 -n 1 -e 978.601739
N -t 28.823201 -n 3 -e 980.315418
N -t 28.823201 -n 2 -e 979.172965
N -t 28.823201 -n 4 -e 979.744192
N -t 28.823201 -n 0 -e 980.886644
N -t 29.397001 -n 1 -e 978.600166
N -t 29.397001 -n 3 -e 980.313844
N -t 29.397001 -n 2 -e 979.171392
N -t 29.397001 -n 4 -e 979.742618
N -t 29.397001 -n 0 -e 980.885070
N -t 29.540201 -n 1 -e 978.455966
N -t 29.540201 -n 3 -e 980.169644
N -t 29.540201 -n 2 -e 979.027192
N -t 29.540201 -n 4 -e 979.598418
N -t 29.540201 -n 0 -e 980.740870
N -t 30.114001 -n 1 -e 978.454392
N -t 30.114001 -n 3 -e 980.168070
N -t 30.114001 -n 2 -e 979.025618
N -t 30.114001 -n 4 -e 979.596844
N -t 30.114001 -n 0 -e 980.739296
N -t 30.257201 -n 1 -e 978.310192
N -t 30.257201 -n 3 -e 980.023870
N -t 30.257201 -n 2 -e 978.881418
N -t 30.257201 -n 4 -e 979.452644
N -t 30.257201 -n 0 -e 980.595096
N -t 30.831001 -n 1 -e 978.308618
N -t 30.831001 -n 3 -e 980.022296
N -t 30.831001 -n 2 -e 978.879844
N -t 30.831001 -n 4 -e 979.451070
N -t 30.831001 -n 0 -e 980.593523
s 30.849001375 _0_ MAC  --- 0 SYNC 9 [0.12 0 1] [energy 980.593523 ei 19.307 es 0.011 et 0.009 er 0.039] 
N -t 30.849002 -n 1 -e 978.287618
N -t 30.849002 -n 3 -e 980.001296
N -t 30.849002 -n 4 -e 979.430070
N -t 30.849002 -n 2 -e 978.858844
N -t 30.974201 -n 3 -e 979.878096
N -t 30.974201 -n 2 -e 978.735644
N -t 30.974201 -n 4 -e 979.306870
N -t 30.974201 -n 0 -e 980.449323
N -t 30.974202 -n 1 -e 978.164418
N -t 31.000000 -n 0 -e 980.449297
N -t 31.000000 -n 1 -e 978.164392
N -t 31.000000 -n 2 -e 978.735618
N -t 31.000000 -n 3 -e 979.878071
N -t 31.000000 -n 4 -e 979.306844
N -t 31.548001 -n 3 -e 979.876523
N -t 31.548001 -n 2 -e 978.734070
N -t 31.548001 -n 4 -e 979.305296
N -t 31.548001 -n 0 -e 980.447749
N -t 31.548002 -n 1 -e 978.162844
s 31.569001356 _3_ MAC  --- 0 SYNC 9 [0.12 3 1] [energy 979.876523 ei 20.021 es 0.011 et 0.009 er 0.042] 
N -t 31.569002 -n 1 -e 978.138844
N -t 31.569002 -n 0 -e 980.423749
N -t 31.569002 -n 2 -e 978.710070
N -t 31.569002 -n 4 -e 979.281296
N -t 31.691201 -n 3 -e 979.732323
N -t 31.691201 -n 2 -e 978.589870
N -t 31.691201 -n 4 -e 979.161096
N -t 31.691201 -n 0 -e 980.303549
N -t 31.691202 -n 1 -e 978.018644
N -t 32.265001 -n 3 -e 979.730749
N -t 32.265001 -n 2 -e 978.588296
N -t 32.265001 -n 4 -e 979.159523
N -t 32.265001 -n 0 -e 980.301975
N -t 32.265002 -n 1 -e 978.017070
s 32.296001372 _4_ MAC  --- 0 SYNC 9 [0.11 4 1] [energy 979.159523 ei 20.735 es 0.011 et 0.009 er 0.045] 
N -t 32.296002 -n 1 -e 977.983070
N -t 32.296002 -n 2 -e 978.554296
N -t 32.296002 -n 0 -e 980.267975
N -t 32.296002 -n 3 -e 979.696748
N -t 32.408201 -n 3 -e 979.586549
N -t 32.408201 -n 2 -e 978.444096
N -t 32.408201 -n 4 -e 979.015323
N -t 32.408201 -n 0 -e 980.157775
N -t 32.408202 -n 1 -e 977.872870
N -t 32.982001 -n 3 -e 979.584975
N -t 32.982001 -n 2 -e 978.442523
N -t 32.982001 -n 4 -e 979.013749
N -t 32.982001 -n 0 -e 980.156201
N -t 32.982002 -n 1 -e 977.871296
s 33.005001357 _2_ MAC  --- 0 SYNC 9 [0.12 2 1] [energy 978.442523 ei 21.449 es 0.011 et 0.009 er 0.048] 
N -t 33.005002 -n 1 -e 977.845296
N -t 33.005002 -n 4 -e 978.987749
N -t 33.005002 -n 3 -e 979.558975
N -t 33.005002 -n 0 -e 980.130201
N -t 33.125201 -n 3 -e 979.440775
N -t 33.125201 -n 2 -e 978.298323
N -t 33.125201 -n 4 -e 978.869549
N -t 33.125201 -n 0 -e 980.012001
N -t 33.125202 -n 1 -e 977.727096
N -t 33.699001 -n 3 -e 979.439201
N -t 33.699001 -n 2 -e 978.296749
N -t 33.699001 -n 4 -e 978.867975
N -t 33.699001 -n 0 -e 980.010427
N -t 33.699002 -n 1 -e 977.725522
s 33.739001546 _1_ MAC  --- 0 SYNC 9 [0.10 1 0] [energy 977.725522 ei 22.163 es 0.011 et 0.012 er 0.048] 
N -t 33.739002 -n 3 -e 979.396201
N -t 33.739002 -n 2 -e 978.253748
N -t 33.739002 -n 4 -e 978.824975
N -t 33.739002 -n 0 -e 979.967427
N -t 33.842202 -n 1 -e 977.581322
N -t 33.842202 -n 3 -e 979.295001
N -t 33.842202 -n 2 -e 978.152548
N -t 33.842202 -n 4 -e 978.723775
N -t 33.842202 -n 0 -e 979.866227
N -t 34.416002 -n 1 -e 977.579749
N -t 34.416002 -n 3 -e 979.293427
N -t 34.416002 -n 2 -e 978.150975
N -t 34.416002 -n 4 -e 978.722201
N -t 34.416002 -n 0 -e 979.864653
N -t 34.559202 -n 1 -e 977.435549
N -t 34.559202 -n 3 -e 979.149227
N -t 34.559202 -n 2 -e 978.006775
N -t 34.559202 -n 4 -e 978.578001
N -t 34.559202 -n 0 -e 979.720453
N -t 35.133002 -n 1 -e 977.433975
N -t 35.133002 -n 3 -e 979.147653
N -t 35.133002 -n 2 -e 978.005201
N -t 35.133002 -n 4 -e 978.576427
N -t 35.133002 -n 0 -e 979.718879
N -t 35.276202 -n 1 -e 977.289775
N -t 35.276202 -n 3 -e 979.003453
N -t 35.276202 -n 2 -e 977.861001
N -t 35.276202 -n 4 -e 978.432227
N -t 35.276202 -n 0 -e 979.574679
N -t 35.850002 -n 1 -e 977.288201
N -t 35.850002 -n 3 -e 979.001879
N -t 35.850002 -n 2 -e 977.859427
N -t 35.850002 -n 4 -e 978.430653
N -t 35.850002 -n 0 -e 979.573106
N -t 35.993202 -n 1 -e 977.144001
N -t 35.993202 -n 3 -e 978.857679
N -t 35.993202 -n 2 -e 977.715227
N -t 35.993202 -n 4 -e 978.286453
N -t 35.993202 -n 0 -e 979.428906
N -t 36.567002 -n 1 -e 977.142427
N -t 36.567002 -n 3 -e 978.856106
N -t 36.567002 -n 2 -e 977.713653
N -t 36.567002 -n 4 -e 978.284879
N -t 36.567002 -n 0 -e 979.427332
N -t 36.710202 -n 1 -e 976.998227
N -t 36.710202 -n 3 -e 978.711906
N -t 36.710202 -n 2 -e 977.569453
N -t 36.710202 -n 4 -e 978.140679
N -t 36.710202 -n 0 -e 979.283132
N -t 37.284002 -n 1 -e 976.996653
N -t 37.284002 -n 3 -e 978.710332
N -t 37.284002 -n 2 -e 977.567879
N -t 37.284002 -n 4 -e 978.139106
N -t 37.284002 -n 0 -e 979.281558
N -t 37.427202 -n 1 -e 976.852453
N -t 37.427202 -n 3 -e 978.566132
N -t 37.427202 -n 2 -e 977.423679
N -t 37.427202 -n 4 -e 977.994906
N -t 37.427202 -n 0 -e 979.137358
N -t 38.001002 -n 1 -e 976.850880
N -t 38.001002 -n 3 -e 978.564558
N -t 38.001002 -n 2 -e 977.422106
N -t 38.001002 -n 4 -e 977.993332
N -t 38.001002 -n 0 -e 979.135784
s 38.024001752 _0_ MAC  --- 0 SYNC 9 [0.12 0 1] [energy 979.135784 ei 20.724 es 0.017 et 0.012 er 0.051] 
N -t 38.024002 -n 1 -e 976.824879
N -t 38.024002 -n 3 -e 978.538558
N -t 38.024002 -n 4 -e 977.967332
N -t 38.024002 -n 2 -e 977.396105
N -t 38.144202 -n 3 -e 978.420358
N -t 38.144202 -n 2 -e 977.277906
N -t 38.144202 -n 4 -e 977.849132
N -t 38.144202 -n 0 -e 978.991584
N -t 38.144202 -n 1 -e 976.706679
N -t 38.718002 -n 3 -e 978.418784
N -t 38.718002 -n 2 -e 977.276332
N -t 38.718002 -n 4 -e 977.847558
N -t 38.718002 -n 0 -e 978.990010
N -t 38.718002 -n 1 -e 976.705105
s 38.747001733 _3_ MAC  --- 0 SYNC 9 [0.11 3 1] [energy 978.418784 ei 21.438 es 0.017 et 0.012 er 0.054] 
N -t 38.747002 -n 1 -e 976.673105
N -t 38.747002 -n 0 -e 978.958010
N -t 38.747002 -n 2 -e 977.244332
N -t 38.747002 -n 4 -e 977.815558
N -t 38.861202 -n 3 -e 978.274584
N -t 38.861202 -n 2 -e 977.132132
N -t 38.861202 -n 4 -e 977.703358
N -t 38.861202 -n 0 -e 978.845810
N -t 38.861202 -n 1 -e 976.560905
N -t 39.435002 -n 3 -e 978.273010
N -t 39.435002 -n 2 -e 977.130558
N -t 39.435002 -n 4 -e 977.701784
N -t 39.435002 -n 0 -e 978.844237
N -t 39.435002 -n 1 -e 976.559332
s 39.454001749 _4_ MAC  --- 0 SYNC 9 [0.12 4 1] [energy 977.701784 ei 22.152 es 0.017 et 0.012 er 0.057] 
N -t 39.454002 -n 1 -e 976.537332
N -t 39.454002 -n 2 -e 977.108558
N -t 39.454002 -n 0 -e 978.822236
N -t 39.454002 -n 3 -e 978.251010
N -t 39.578202 -n 3 -e 978.128810
N -t 39.578202 -n 2 -e 976.986358
N -t 39.578202 -n 4 -e 977.557584
N -t 39.578202 -n 0 -e 978.700037
N -t 39.578202 -n 1 -e 976.415132
N -t 40.152002 -n 3 -e 978.127237
N -t 40.152002 -n 2 -e 976.984784
N -t 40.152002 -n 4 -e 977.556010
N -t 40.152002 -n 0 -e 978.698463
N -t 40.152002 -n 1 -e 976.413558
s 40.162001735 _2_ MAC  --- 0 SYNC 9 [0.13 2 1] [energy 976.984784 ei 22.866 es 0.017 et 0.012 er 0.060] 
N -t 40.162002 -n 1 -e 976.400558
N -t 40.162002 -n 4 -e 977.543010
N -t 40.162002 -n 3 -e 978.114236
N -t 40.162002 -n 0 -e 978.685462
N -t 40.295202 -n 3 -e 977.983037
N -t 40.295202 -n 2 -e 976.840584
N -t 40.295202 -n 4 -e 977.411810
N -t 40.295202 -n 0 -e 978.554263
N -t 40.295202 -n 1 -e 976.269358
N -t 40.869002 -n 3 -e 977.981463
N -t 40.869002 -n 2 -e 976.839010
N -t 40.869002 -n 4 -e 977.410237
N -t 40.869002 -n 0 -e 978.552689
N -t 40.869002 -n 1 -e 976.267784
s 40.890001923 _1_ MAC  --- 0 SYNC 9 [0.12 1 0] [energy 976.267784 ei 23.580 es 0.017 et 0.015 er 0.060] 
N -t 40.890002 -n 3 -e 977.957462
N -t 40.890002 -n 2 -e 976.815010
N -t 40.890002 -n 4 -e 977.386236
N -t 40.890002 -n 0 -e 978.528689
N -t 41.012202 -n 1 -e 976.123584
N -t 41.012202 -n 3 -e 977.837262
N -t 41.012202 -n 2 -e 976.694810
N -t 41.012202 -n 4 -e 977.266036
N -t 41.012202 -n 0 -e 978.408489
N -t 41.586002 -n 1 -e 976.122010
N -t 41.586002 -n 3 -e 977.835689
N -t 41.586002 -n 2 -e 976.693236
N -t 41.586002 -n 4 -e 977.264462
N -t 41.586002 -n 0 -e 978.406915
N -t 41.729202 -n 1 -e 975.977810
N -t 41.729202 -n 3 -e 977.691489
N -t 41.729202 -n 2 -e 976.549036
N -t 41.729202 -n 4 -e 977.120262
N -t 41.729202 -n 0 -e 978.262715
N -t 42.303002 -n 1 -e 975.976236
N -t 42.303002 -n 3 -e 977.689915
N -t 42.303002 -n 2 -e 976.547462
N -t 42.303002 -n 4 -e 977.118689
N -t 42.303002 -n 0 -e 978.261141
N -t 42.446202 -n 1 -e 975.832036
N -t 42.446202 -n 3 -e 977.545715
N -t 42.446202 -n 2 -e 976.403262
N -t 42.446202 -n 4 -e 976.974489
N -t 42.446202 -n 0 -e 978.116941
N -t 43.020002 -n 1 -e 975.830463
N -t 43.020002 -n 3 -e 977.544141
N -t 43.020002 -n 2 -e 976.401689
N -t 43.020002 -n 4 -e 976.972915
N -t 43.020002 -n 0 -e 978.115367
N -t 43.163202 -n 1 -e 975.686263
N -t 43.163202 -n 3 -e 977.399941
N -t 43.163202 -n 2 -e 976.257489
N -t 43.163202 -n 4 -e 976.828715
N -t 43.163202 -n 0 -e 977.971167
N -t 43.737002 -n 1 -e 975.684689
N -t 43.737002 -n 3 -e 977.398367
N -t 43.737002 -n 2 -e 976.255915
N -t 43.737002 -n 4 -e 976.827141
N -t 43.737002 -n 0 -e 977.969593
N -t 43.880202 -n 1 -e 975.540489
N -t 43.880202 -n 3 -e 977.254167
N -t 43.880202 -n 2 -e 976.111715
N -t 43.880202 -n 4 -e 976.682941
N -t 43.880202 -n 0 -e 977.825393
N -t 44.454002 -n 1 -e 975.538915
N -t 44.454002 -n 3 -e 977.252593
N -t 44.454002 -n 2 -e 976.110141
N -t 44.454002 -n 4 -e 976.681367
N -t 44.454002 -n 0 -e 977.823820
N -t 44.597202 -n 1 -e 975.394715
N -t 44.597202 -n 3 -e 977.108393
N -t 44.597202 -n 2 -e 975.965941
N -t 44.597202 -n 4 -e 976.537167
N -t 44.597202 -n 0 -e 977.679620
N -t 45.171002 -n 1 -e 975.393141
N -t 45.171002 -n 3 -e 977.106820
N -t 45.171002 -n 2 -e 975.964367
N -t 45.171002 -n 4 -e 976.535593
N -t 45.171002 -n 0 -e 977.678046
s 45.186002130 _0_ MAC  --- 0 SYNC 9 [0.13 0 1] [energy 977.678046 ei 22.141 es 0.023 et 0.015 er 0.063] 
N -t 45.186002 -n 1 -e 975.375141
N -t 45.186002 -n 3 -e 977.088819
N -t 45.186002 -n 4 -e 976.517593
N -t 45.186003 -n 2 -e 975.946367
N -t 45.314202 -n 3 -e 976.962620
N -t 45.314202 -n 2 -e 975.820167
N -t 45.314202 -n 4 -e 976.391393
N -t 45.314202 -n 0 -e 977.533846
N -t 45.314202 -n 1 -e 975.248941
N -t 45.888002 -n 3 -e 976.961046
N -t 45.888002 -n 2 -e 975.818593
N -t 45.888002 -n 4 -e 976.389820
N -t 45.888002 -n 0 -e 977.532272
N -t 45.888002 -n 1 -e 975.247367
s 45.910002111 _3_ MAC  --- 0 SYNC 9 [0.12 3 1] [energy 976.961046 ei 22.855 es 0.023 et 0.015 er 0.066] 
N -t 45.910002 -n 1 -e 975.222367
N -t 45.910002 -n 0 -e 977.507272
N -t 45.910002 -n 2 -e 975.793593
N -t 45.910003 -n 4 -e 976.364819
N -t 46.031202 -n 3 -e 976.816846
N -t 46.031202 -n 2 -e 975.674393
N -t 46.031202 -n 4 -e 976.245620
N -t 46.031202 -n 0 -e 977.388072
N -t 46.031202 -n 1 -e 975.103167
N -t 46.605002 -n 3 -e 976.815272
N -t 46.605002 -n 2 -e 975.672820
N -t 46.605002 -n 4 -e 976.244046
N -t 46.605002 -n 0 -e 977.386498
N -t 46.605002 -n 1 -e 975.101593
s 46.640002127 _4_ MAC  --- 0 SYNC 9 [0.11 4 1] [energy 976.244046 ei 23.569 es 0.023 et 0.015 er 0.069] 
N -t 46.640002 -n 1 -e 975.063593
N -t 46.640002 -n 2 -e 975.634819
N -t 46.640002 -n 0 -e 977.348498
N -t 46.640003 -n 3 -e 976.777272
N -t 46.748202 -n 3 -e 976.671072
N -t 46.748202 -n 2 -e 975.528620
N -t 46.748202 -n 4 -e 976.099846
N -t 46.748202 -n 0 -e 977.242298
N -t 46.748202 -n 1 -e 974.957393
N -t 47.322002 -n 3 -e 976.669498
N -t 47.322002 -n 2 -e 975.527046
N -t 47.322002 -n 4 -e 976.098272
N -t 47.322002 -n 0 -e 977.240724
N -t 47.322002 -n 1 -e 974.955819
s 47.334002112 _2_ MAC  --- 0 SYNC 9 [0.13 2 1] [energy 975.527046 ei 24.283 es 0.023 et 0.015 er 0.072] 
N -t 47.334002 -n 1 -e 974.940819
N -t 47.334002 -n 4 -e 976.083272
N -t 47.334002 -n 3 -e 976.654498
N -t 47.334003 -n 0 -e 977.225724
N -t 47.465202 -n 3 -e 976.525298
N -t 47.465202 -n 2 -e 975.382846
N -t 47.465202 -n 4 -e 975.954072
N -t 47.465202 -n 0 -e 977.096524
N -t 47.465202 -n 1 -e 974.811619
N -t 48.039002 -n 3 -e 976.523724
N -t 48.039002 -n 2 -e 975.381272
N -t 48.039002 -n 4 -e 975.952498
N -t 48.039002 -n 0 -e 977.094951
N -t 48.039002 -n 1 -e 974.810046
s 48.077002301 _1_ MAC  --- 0 SYNC 9 [0.10 1 0] [energy 974.810046 ei 24.997 es 0.023 et 0.018 er 0.072] 
N -t 48.077002 -n 3 -e 976.482724
N -t 48.077002 -n 2 -e 975.340272
N -t 48.077003 -n 4 -e 975.911498
N -t 48.077003 -n 0 -e 977.053950
N -t 48.182202 -n 1 -e 974.665846
N -t 48.182202 -n 3 -e 976.379524
N -t 48.182202 -n 2 -e 975.237072
N -t 48.182203 -n 4 -e 975.808298
N -t 48.182203 -n 0 -e 976.950750
N -t 48.756002 -n 1 -e 974.664272
N -t 48.756002 -n 3 -e 976.377950
N -t 48.756002 -n 2 -e 975.235498
N -t 48.756003 -n 4 -e 975.806724
N -t 48.756003 -n 0 -e 976.949176
N -t 48.899202 -n 1 -e 974.520072
N -t 48.899202 -n 3 -e 976.233750
N -t 48.899202 -n 2 -e 975.091298
N -t 48.899203 -n 4 -e 975.662524
N -t 48.899203 -n 0 -e 976.804976
N -t 49.473002 -n 1 -e 974.518498
N -t 49.473002 -n 3 -e 976.232177
N -t 49.473002 -n 2 -e 975.089724
N -t 49.473003 -n 4 -e 975.660950
N -t 49.473003 -n 0 -e 976.803403
N -t 49.616202 -n 1 -e 974.374298
N -t 49.616202 -n 3 -e 976.087977
N -t 49.616202 -n 2 -e 974.945524
N -t 49.616203 -n 4 -e 975.516750
N -t 49.616203 -n 0 -e 976.659203
s 50.000000000 _0_ AGT  --- 0 cbr 50 [0.00 0 0] [energy 976.659203 ei 23.128 es 0.026 et 0.018 er 0.075] ------- [0:0 2:0 32 0] [0] 0 1
r 50.000000000 _0_ RTR  --- 0 cbr 50 [0.00 0 0] [energy 976.659203 ei 23.128 es 0.026 et 0.018 er 0.075] ------- [0:0 2:0 32 0] [0] 0 1
s 50.000000000 _3_ AGT  --- 1 cbr 50 [0.00 0 0] [energy 976.087977 ei 23.702 es 0.026 et 0.018 er 0.075] ------- [3:0 4:0 32 0] [0] 0 1
r 50.000000000 _3_ RTR  --- 1 cbr 50 [0.00 0 0] [energy 976.087977 ei 23.702 es 0.026 et 0.018 er 0.075] ------- [3:0 4:0 32 0] [0] 0 1
s 50.000000000 _0_ RTR  --- 0 AODV 48 [0.00 0 0] [energy 976.659203 ei 23.128 es 0.026 et 0.018 er 0.075] ------- [0:255 -1:255 30 0] [0x2 1 1 [2 0] [0 4]] (REQUEST)
s 50.000000000 _3_ RTR  --- 0 AODV 48 [0.00 0 0] [energy 976.087977 ei 23.702 es 0.026 et 0.018 er 0.075] ------- [3:255 -1:255 30 0] [0x2 1 1 [4 0] [3 4]] (REQUEST)
N -t 50.190002 -n 1 -e 974.372724
N -t 50.190002 -n 3 -e 976.086403
N -t 50.190002 -n 2 -e 974.943950
N -t 50.190003 -n 4 -e 975.515176
N -t 50.190003 -n 0 -e 976.657629
s 50.285202488 _3_ MAC  --- 0 AODV 48 [0.00 -1 3] [energy 976.086403 ei 23.702 es 0.026 et 0.018 er 0.075] ------- [3:255 -1:255 30 0] [0x2 1 1 [4 0] [3 4]] (REQUEST)
N -t 50.285203 -n 1 -e 974.234524
N -t 50.285203 -n 0 -e 976.519429
N -t 50.285203 -n 2 -e 974.805750
N -t 50.285203 -n 4 -e 975.376976
r 50.328202676 _1_ MAC  --- 0 AODV 48 [0.00 -1 3] [energy 974.234524 ei 25.519 es 0.025 et 0.021 er 0.115] ------- [3:255 -1:255 30 0] [0x2 1 1 [4 0] [3 4]] (REQUEST)
r 50.328227676 _1_ RTR  --- 0 AODV 48 [0.00 -1 3] [energy 974.234524 ei 25.519 es 0.025 et 0.021 er 0.115] ------- [3:255 -1:255 30 0] [0x2 1 1 [4 0] [3 4]] (REQUEST)
s 50.331819017 _1_ RTR  --- 0 AODV 48 [0.00 -1 3] [energy 974.234524 ei 25.519 es 0.025 et 0.021 er 0.115] ------- [1:255 -1:255 29 0] [0x2 2 1 [4 0] [3 4]] (REQUEST)
N -t 50.333202 -n 1 -e 974.228524
N -t 50.333202 -n 3 -e 975.942203
N -t 50.333202 -n 2 -e 974.799750
N -t 50.333203 -n 4 -e 975.370976
N -t 50.907002 -n 1 -e 974.226950
N -t 50.907002 -n 3 -e 975.940629
N -t 50.907002 -n 2 -e 974.798177
N -t 50.907003 -n 4 -e 975.369403
s 50.990202301 _1_ MAC  --- 0 AODV 48 [0.00 -1 1] [energy 974.226950 ei 25.524 es 0.025 et 0.021 er 0.115] ------- [1:255 -1:255 29 0] [0x2 2 1 [4 0] [3 4]] (REQUEST)
N -t 50.990202 -n 3 -e 975.814429
N -t 50.990202 -n 2 -e 974.671977
N -t 50.990203 -n 4 -e 975.243203
N -t 50.990203 -n 0 -e 975.814429
r 51.033202488 _3_ MAC  --- 0 AODV 48 [0.00 -1 1] [energy 975.814429 ei 23.886 es 0.027 et 0.061 er 0.118] ------- [1:255 -1:255 29 0] [0x2 2 1 [4 0] [3 4]] (REQUEST)
r 51.033202490 _2_ MAC  --- 0 AODV 48 [0.00 -1 1] [energy 974.671977 ei 25.033 es 0.026 et 0.018 er 0.161] ------- [1:255 -1:255 29 0] [0x2 2 1 [4 0] [3 4]] (REQUEST)
r 51.033202505 _4_ MAC  --- 0 AODV 48 [0.00 -1 1] [energy 975.243203 ei 24.459 es 0.026 et 0.018 er 0.161] ------- [1:255 -1:255 29 0] [0x2 2 1 [4 0] [3 4]] (REQUEST)
r 51.033202507 _0_ MAC  --- 0 AODV 48 [0.00 -1 1] [energy 975.814429 ei 23.886 es 0.027 et 0.018 er 0.161] ------- [1:255 -1:255 29 0] [0x2 2 1 [4 0] [3 4]] (REQUEST)
r 51.033227488 _3_ RTR  --- 0 AODV 48 [0.00 -1 1] [energy 975.814429 ei 23.886 es 0.027 et 0.061 er 0.118] ------- [1:255 -1:255 29 0] [0x2 2 1 [4 0] [3 4]] (REQUEST)
r 51.033227490 _2_ RTR  --- 0 AODV 48 [0.00 -1 1] [energy 974.671977 ei 25.033 es 0.026 et 0.018 er 0.161] ------- [1:255 -1:255 29 0] [0x2 2 1 [4 0] [3 4]] (REQUEST)
r 51.033227505 _4_ RTR  --- 0 AODV 48 [0.00 -1 1] [energy 975.243203 ei 24.459 es 0.026 et 0.018 er 0.161] ------- [1:255 -1:255 29 0] [0x2 2 1 [4 0] [3 4]] (REQUEST)
s 51.033227505 _4_ RTR  --- 0 AODV 44 [0.00 0 0] [energy 975.243203 ei 24.459 es 0.026 et 0.018 er 0.161] ------- [4:255 3:255 30 1] [0x4 1 [4 4] 10.000000] (REPLY)
r 51.033227507 _0_ RTR  --- 0 AODV 48 [0.00 -1 1] [energy 975.814429 ei 23.886 es 0.027 et 0.018 er 0.161] ------- [1:255 -1:255 29 0] [0x2 2 1 [4 0] [3 4]] (REQUEST)
s 51.037155714 _0_ RTR  --- 0 AODV 48 [0.00 -1 1] [energy 975.814429 ei 23.886 es 0.027 et 0.018 er 0.161] ------- [0:255 -1:255 28 0] [0x2 3 1 [4 0] [3 4]] (REQUEST)
s 51.041527944 _2_ RTR  --- 0 AODV 48 [0.00 -1 1] [energy 974.671977 ei 25.033 es 0.026 et 0.018 er 0.161] ------- [2:255 -1:255 28 0] [0x2 3 1 [4 0] [3 4]] (REQUEST)
N -t 51.050202 -n 1 -e 974.082750
N -t 51.050202 -n 3 -e 975.796429
N -t 51.050202 -n 2 -e 974.653977
N -t 51.050203 -n 4 -e 975.225203
N -t 51.050203 -n 0 -e 975.796429
N -t 51.624002 -n 1 -e 974.081177
N -t 51.624002 -n 3 -e 975.794855
N -t 51.624002 -n 2 -e 974.652403
N -t 51.624003 -n 4 -e 975.223629
N -t 51.624003 -n 0 -e 975.794855
s 51.709202507 _0_ MAC  --- 0 AODV 48 [0.00 -1 0] [energy 975.794855 ei 23.903 es 0.028 et 0.018 er 0.161] ------- [0:255 -1:255 30 0] [0x2 1 1 [2 0] [0 4]] (REQUEST)
N -t 51.709203 -n 1 -e 973.952976
N -t 51.709203 -n 3 -e 975.666655
N -t 51.709203 -n 4 -e 975.095429
N -t 51.709203 -n 2 -e 974.524202
r 51.752202714 _1_ MAC  --- 0 AODV 48 [0.00 -1 0] [energy 973.952976 ei 25.709 es 0.026 et 0.064 er 0.158] ------- [0:255 -1:255 30 0] [0x2 1 1 [2 0] [0 4]] (REQUEST)
r 51.752227714 _1_ RTR  --- 0 AODV 48 [0.00 -1 0] [energy 973.952976 ei 25.709 es 0.026 et 0.064 er 0.158] ------- [0:255 -1:255 30 0] [0x2 1 1 [2 0] [0 4]] (REQUEST)
s 51.752262996 _1_ RTR  --- 0 AODV 48 [0.00 -1 0] [energy 973.952976 ei 25.709 es 0.026 et 0.064 er 0.158] ------- [1:255 -1:255 29 0] [0x2 2 1 [2 0] [0 4]] (REQUEST)
N -t 51.767202 -n 1 -e 973.936977
N -t 51.767202 -n 3 -e 975.650655
N -t 51.767203 -n 0 -e 975.650655
s 52.000000000 _0_ RTR  --- 0 AODV 48 [0.00 0 0] [energy 975.650655 ei 24.003 es 0.028 et 0.061 er 0.161] ------- [0:255 -1:255 30 0] [0x2 1 2 [2 0] [0 6]] (REQUEST)
s 52.000000000 _3_ RTR  --- 0 AODV 48 [0.00 0 0] [energy 975.650655 ei 24.003 es 0.028 et 0.061 er 0.161] ------- [3:255 -1:255 30 0] [0x2 1 2 [4 0] [3 6]] (REQUEST)
N -t 52.341002 -n 1 -e 973.935403
N -t 52.341002 -n 3 -e 975.649081
N -t 52.341003 -n 0 -e 975.649081
s 52.353002507 _0_ MAC  --- 0 SYNC 9 [0.13 0 1] [energy 975.649081 ei 24.003 es 0.028 et 0.061 er 0.161] 
N -t 52.353003 -n 1 -e 973.920402
N -t 52.353003 -n 3 -e 975.634081
N -t 52.353003 -n 4 -e 974.491629
N -t 52.353003 -n 2 -e 973.920402
s 52.411202714 _1_ MAC  --- 0 AODV 48 [0.00 -1 1] [energy 973.920402 ei 25.736 es 0.026 et 0.064 er 0.161] ------- [1:255 -1:255 29 0] [0x2 2 1 [2 0] [0 4]] (REQUEST)
N -t 52.411203 -n 3 -e 975.535881
N -t 52.411203 -n 2 -e 973.822202
N -t 52.411203 -n 4 -e 974.393428
N -t 52.411203 -n 0 -e 975.535881
r 52.454202901 _3_ MAC  --- 0 AODV 48 [0.00 -1 1] [energy 975.535881 ei 24.070 es 0.028 et 0.061 er 0.207] ------- [1:255 -1:255 29 0] [0x2 2 1 [2 0] [0 4]] (REQUEST)