V -t * -v 1.0a5 -a 0
W -t * -x 800 -y 800
A -t * -n 1 -p 0 -o 0x7fffffff -c 30 -a 1
A -t * -h 1 -m 1073741823 -s 0
n -t 5.000000 -s 0 -x 275.211569 -y 185.706089 -U 0.000000 -V 0.000000 -T 0.000000
n -t 5.000000 -s 1 -x 230.805718 -y 228.918089 -U 0.000000 -V 0.000000 -T 0.000000
n -t 5.000000 -s 2 -x 184.744913 -y 261.871089 -U 0.000000 -V 0.000000 -T 0.000000
n -t 5.000000 -s 3 -x 274.412913 -y 264.456089 -U 0.000000 -V 0.000000 -T 0.000000
n -t 5.000000 -s 4 -x 184.098569 -y 189.503089 -U 0.000000 -V 0.000000 -T 0.000000
+ -t 8.616000000 -s 1 -d -1 -p smac -e 9 -c 2 -a 0 -i 0 -k MAC 
- -t 8.616000000 -s 1 -d -1 -p smac -e 9 -c 2 -a 0 -i 0 -k MAC
h -t 8.616000000 -s 1 -d -1 -p smac -e 9 -c 2 -a 0 -i 0 -k MAC
+ -t 9.333000207 -s 0 -d -1 -p smac -e 9 -c 2 -a 0 -i 0 -k MAC 
- -t 9.333000207 -s 0 -d -1 -p smac -e 9 -c 2 -a 0 -i 0 -k MAC
h -t 9.333000207 -s 0 -d -1 -p smac -e 9 -c 2 -a 0 -i 0 -k MAC
+ -t 10.056000188 -s 3 -d -1 -p smac -e 9 -c 2 -a 0 -i 0 -k MAC 
- -t 10.056000188 -s 3 -d -1 -p smac -e 9 -c 2 -a 0 -i 0 -k MAC
h -t 10.056000188 -s 3 -d -1 -p smac -e 9 -c 2 -a 0 -i 0 -k MAC
+ -t 10.774000204 -s 4 -d -1 -p smac -e 9 -c 2 -a 0 -i 0 -k MAC 
- -t 10.774000204 -s 4 -d -1 -p smac -e 9 -c 2 -a 0 -i 0 -k MAC
h -t 10.774000204 -s 4 -d -1 -p smac -e 9 -c 2 -a 0 -i 0 -k MAC
+ -t 11.497000189 -s 2 -d -1 -p smac -e 9 -c 2 -a 0 -i 0 -k MAC 
- -t 11.497000189 -s 2 -d -1 -p smac -e 9 -c 2 -a 0 -i 0 -k MAC
h -t 11.497000189 -s 2 -d -1 -p smac -e 9 -c 2 -a 0 -i 0 -k MAC
+ -t 12.204000413 -s 1 -d -1 -p smac -e 9 -c 2 -a 0 -i 0 -k MAC 
- -t 12.204000413 -s 1 -d -1 -p smac -e 9 -c 2 -a 0 -i 0 -k MAC
h -t 12.204000413 -s 1 -d -1 -p smac -e 9 -c 2 -a 0 -i 0 -k MAC
+ -t 16.504000620 -s 0 -d -1 -p smac -e 9 -c 2 -a 0 -i 0 -k MAC 
- -t 16.504000620 -s 0 -d -1 -p smac -e 9 -c 2 -a 0 -i 0 -k MAC
h -t 16.504000620 -s 0 -d -1 -p smac -e 9 -c 2 -a 0 -i 0 -k MAC
+ -t 17.227000601 -s 3 -d -1 -p smac -e 9 -c 2 -a 0 -i 0 -k MAC 
- -t 17.227000601 -s 3 -d -1 -p smac -e 9 -c 2 -a 0 -i 0 -k MAC
h -t 17.227000601 -s 3 -d -1 -p smac -e 9 -c 2 -a 0 -i 0 -k MAC
+ -t 17.951000617 -s 4 -d -1 -p smac -e 9 -c 2 -a 0 -i 0 -k MAC 
- -t 17.951000617 -s 4 -d -1 -p smac -e 9 -c 2 -a 0 -i 0 -k MAC
h -t 17.951000617 -s 4 -d -1 -p smac -e 9 -c 2 -a 0 -i 0 -k MAC
+ -t 18.652000602 -s 2 -d -1 -p smac -e 9 -c 2 -a 0 -i 0 -k MAC 
- -t 18.652000602 -s 2 -d -1 -p smac -e 9 -c 2 -a 0 -i 0 -k MAC
h -t 18.652000602 -s 2 -d -1 -p smac -e 9 -c 2 -a 0 -i 0 -k MAC
+ -t 19.393000791 -s 1 -d -1 -p smac -e 9 -c 2 -a 0 -i 0 -k MAC 
- -t 19.393000791 -s 1 -d -1 -p smac -e 9 -c 2 -a 0 -i 0 -k MAC
h -t 19.393000791 -s 1 -d -1 -p smac -e 9 -c 2 -a 0 -i 0 -k MAC
+ -t 23.694000997 -s 0 -d -1 -p smac -e 9 -c 2 -a 0 -i 0 -k MAC 
- -t 23.694000997 -s 0 -d -1 -p smac -e 9 -c 2 -a 0 -i 0 -k MAC
h -t 23.694000997 -s 0 -d -1 -p smac -e 9 -c 2 -a 0 -i 0 -k MAC
+ -t 24.401000978 -s 3 -d -1 -p smac -e 9 -c 2 -a 0 -i 0 -k MAC 
- -t 24.401000978 -s 3 -d -1 -p smac -e 9 -c 2 -a 0 -i 0 -k MAC
h -t 24.401000978 -s 3 -d -1 -p smac -e 9 -c 2 -a 0 -i 0 -k MAC
+ -t 25.111000994 -s 4 -d -1 -p smac -e 9 -c 2 -a 0 -i 0 -k MAC 
- -t 25.111000994 -s 4 -d -1 -p smac -e 9 -c 2 -a 0 -i 0 -k MAC
h -t 25.111000994 -s 4 -d -1 -p smac -e 9 -c 2 -a 0 -i 0 -k MAC
+ -t 25.844000979 -s 2 -d -1 -p smac -e 9 -c 2 -a 0 -i 0 -k MAC 
- -t 25.844000979 -s 2 -d -1 -p smac -e 9 -c 2 -a 0 -i 0 -k MAC
h -t 25.844000979 -s 2 -d -1 -p smac -e 9 -c 2 -a 0 -i 0 -k MAC
+ -t 26.556001168 -s 1 -d -1 -p smac -e 9 -c 2 -a 0 -i 0 -k MAC 
- -t 26.556001168 -s 1 -d -1 -p smac -e 9 -c 2 -a 0 -i 0 -k MAC
h -t 26.556001168 -s 1 -d -1 -p smac -e 9 -c 2 -a 0 -i 0 -k MAC
+ -t 30.849001375 -s 0 -d -1 -p smac -e 9 -c 2 -a 0 -i 0 -k MAC 
- -t 30.849001375 -s 0 -d -1 -p smac -e 9 -c 2 -a 0 -i 0 -k MAC
h -t 30.849001375 -s 0 -d -1 -p smac -e 9 -c 2 -a 0 -i 0 -k MAC
+ -t 31.569001356 -s 3 -d -1 -p smac -e 9 -c 2 -a 0 -i 0 -k MAC 
- -t 31.569001356 -s 3 -d -1 -p smac -e 9 -c 2 -a 0 -i 0 -k MAC
h -t 31.569001356 -s 3 -d -1 -p smac -e 9 -c 2 -a 0 -i 0 -k MAC
+ -t 32.296001372 -s 4 -d -1 -p smac -e 9 -c 2 -a 0 -i 0 -k MAC 
- -t 32.296001372 -s 4 -d -1 -p smac -e 9 -c 2 -a 0 -i 0 -k MAC
h -t 32.296001372 -s 4 -d -1 -p smac -e 9 -c 2 -a 0 -i 0 -k MAC
+ -t 33.005001357 -s 2 -d -1 -p smac -e 9 -c 2 -a 0 -i 0 -k MAC 
- -t 33.005001357 -s 2 -d -1 -p smac -e 9 -c 2 -a 0 -i 0 -k MAC
h -t 33.005001357 -s 2 -d -1 -p smac -e 9 -c 2 -a 0 -i 0 -k MAC
+ -t 33.739001546 -s 1 -d -1 -p smac -e 9 -c 2 -a 0 -i 0 -k MAC 
- -t 33.739001546 -s 1 -d -1 -p smac -e 9 -c 2 -a 0 -i 0 -k MAC
h -t 33.739001546 -s 1 -d -1 -p smac -e 9 -c 2 -a 0 -i 0 -k MAC
+ -t 38.024001752 -s 0 -d -1 -p smac -e 9 -c 2 -a 0 -i 0 -k MAC 
- -t 38.024001752 -s 0 -d -1 -p smac -e 9 -c 2 -a 0 -i 0 -k MAC
h -t 38.024001752 -s 0 -d -1 -p smac -e 9 -c 2 -a 0 -i 0 -k MAC
+ -t 38.747001733 -s 3 -d -1 -p smac -e 9 -c 2 -a 0 -i 0 -k MAC 
- -t 38.747001733 -s 3 -d -1 -p smac -e 9 -c 2 -a 0 -i 0 -k MAC
h -t 38.747001733 -s 3 -d -1 -p smac -e 9 -c 2 -a 0 -i 0 -k MAC
+ -t 39.454001749 -s 4 -d -1 -p smac -e 9 -c 2 -a 0 -i 0 -k MAC 
- -t 39.454001749 -s 4 -d -1 -p smac -e 9 -c 2 -a 0 -i 0 -k MAC
h -t 39.454001749 -s 4 -d -1 -p smac -e 9 -c 2 -a 0 -i 0 -k MAC
+ -t 40.162001735 -s 2 -d -1 -p smac -e 9 -c 2 -a 0 -i 0 -k MAC 
- -t 40.162001735 -s 2 -d -1 -p smac -e 9 -c 2 -a 0 -i 0 -k MAC
h -t 40.162001735 -s 2 -d -1 -p smac -e 9 -c 2 -a 0 -i 0 -k MAC
+ -t 40.890001923 -s 1 -d -1 -p smac -e 9 -c 2 -a 0 -i 0 -k MAC 
- -t 40.890001923 -s 1 -d -1 -p smac -e 9 -c 2 -a 0 -i 0 -k MAC
h -t 40.890001923 -s 1 -d -1 -p smac -e 9 -c 2 -a 0 -i 0 -k MAC
+ -t 45.186002130 -s 0 -d -1 -p smac -e 9 -c 2 -a 0 -i 0 -k MAC 
- -t 45.186002130 -s 0 -d -1 -p smac -e 9 -c 2 -a 0 -i 0 -k MAC
h -t 45.186002130 -s 0 -d -1 -p smac -e 9 -c 2 -a 0 -i 0 -k MAC
+ -t 45.910002111 -s 3 -d -1 -p smac -e 9 -c 2 -a 0 -i 0 -k MAC 
- -t 45.910002111 -s 3 -d -1 -p smac -e 9 -c 2 -a 0 -i 0 -k MAC
h -t 45.910002111 -s 3 -d -1 -p smac -e 9 -c 2 -a 0 -i 0 -k MAC
+ -t 46.640002127 -s 4 -d -1 -p smac -e 9 -c 2 -a 0 -i 0 -k MAC 
- -t 46.640002127 -s 4 -d -1 -p smac -e 9 -c 2 -a 0 -i 0 -k MAC
h -t 46.640002127 -s 4 -d -1 -p smac -e 9 -c 2 -a 0 -i 0 -k MAC
+ -t 47.334002112 -s 2 -d -1 -p smac -e 9 -c 2 -a 0 -i 0 -k MAC 
- -t 47.334002112 -s 2 -d -1 -p smac -e 9 -c 2 -a 0 -i 0 -k MAC
h -t 47.334002112 -s 2 -d -1 -p smac -e 9 -c 2 -a 0 -i 0 -k MAC
+ -t 48.077002301 -s 1 -d -1 -p smac -e 9 -c 2 -a 0 -i 0 -k MAC 
- -t 48.077002301 -s 1 -d -1 -p smac -e 9 -c 2 -a 0 -i 0 -k MAC
h -t 48.077002301 -s 1 -d -1 -p smac -e 9 -c 2 -a 0 -i 0 -k MAC
+ -t 50.000000000 -s 0 -d -1 -p cbr -e 50 -c 2 -a 0 -i 0 -k AGT 
- -t 50.000000000 -s 0 -d -1 -p cbr -e 50 -c 2 -a 0 -i 0 -k AGT
h -t 50.000000000 -s 0 -d -1 -p cbr -e 50 -c 2 -a 0 -i 0 -k AGT
+ -t 50.000000000 -s 3 -d -1 -p cbr -e 50 -c 2 -a 0 -i 1 -k AGT 
- -t 50.000000000 -s 3 -d -1 -p cbr -e 50 -c 2 -a 0 -i 1 -k AGT
h -t 50.000000000 -s 3 -d -1 -p cbr -e 50 -c 2 -a 0 -i 1 -k AGT
+ -t 50.000000000 -s 0 -d -1 -p AODV -e 48 -c 2 -a 0 -i 0 -k RTR 
- -t 50.000000000 -s 0 -d -1 -p AODV -e 48 -c 2 -a 0 -i 0 -k RTR
h -t 50.000000000 -s 0 -d -1 -p AODV -e 48 -c 2 -a 0 -i 0 -k RTR
+ -t 50.000000000 -s 3 -d -1 -p AODV -e 48 -c 2 -a 0 -i 0 -k RTR 
- -t 50.000000000 -s 3 -d -1 -p AODV -e 48 -c 2 -a 0 -i 0 -k RTR
h -t 50.000000000 -s 3 -d -1 -p AODV -e 48 -c 2 -a 0 -i 0 -k RTR
+ -t 50.285202488 -s 3 -d -1 -p AODV -e 48 -c 2 -a 0 -i 0 -k MAC 
- -t 50.285202488 -s 3 -d -1 -p AODV -e 48 -c 2 -a 0 -i 0 -k MAC
h -t 50.285202488 -s 3 -d -1 -p AODV -e 48 -c 2 -a 0 -i 0 -k MAC
r -t 50.328202676 -s 1 -d -1 -p AODV -e 48 -c 2 -a 0 -i 0 -k MAC
r -t 50.328227676 -s 1 -d -1 -p AODV -e 48 -c 2 -a 0 -i 0 -k RTR
+ -t 50.331819017 -s 1 -d -1 -p AODV -e 48 -c 2 -a 0 -i 0 -k RTR 
- -t 50.331819017 -s 1 -d -1 -p AODV -e 48 -c 2 -a 0 -i 0 -k RTR
h -t 50.331819017 -s 1 -d -1 -p AODV -e 48 -c 2 -a 0 -i 0 -k RTR
+ -t 50.990202301 -s 1 -d -1 -p AODV -e 48 -c 2 -a 0 -i 0 -k MAC 
- -t 50.990202301 -s 1 -d -1 -p AODV -e 48 -c 2 -a 0 -i 0 -k MAC
h -t 50.990202301 -s 1 -d -1 -p AODV -e 48 -c 2 -a 0 -i 0 -k MAC
r -t 51.033202488 -s 3 -d -1 -p AODV -e 48 -c 2 -a 0 -i 0 -k MAC
r -t 51.033202490 -s 2 -d -1 -p AODV -e 48 -c 2 -a 0 -i 0 -k MAC
r -t 51.033202505 -s 4 -d -1 -p AODV -e 48 -c 2 -a 0 -i 0 -k MAC
r -t 51.033202507 -s 0 -d -1 -p AODV -e 48 -c 2 -a 0 -i 0 -k MAC
r -t 51.033227488 -s 3 -d -1 -p AODV -e 48 -c 2 -a 0 -i 0 -k RTR
r -t 51.033227490 -s 2 -d -1 -p AODV -e 48 -c 2 -a 0 -i 0 -k RTR
r -t 51.033227505 -s 4 -d -1 -p AODV -e 48 -c 2 -a 0 -i 0 -k RTR
+ -t 51.033227505 -s 4 -d 1 -p AODV -e 44 -c 2 -a 0 -i 0 -k RTR 
- -t 51.033227505 -s 4 -d 1 -p AODV -e 44 -c 2 -a 0 -i 0 -k RTR
h -t 51.033227505 -s 4 -d 1 -p AODV -e 44 -c 2 -a 0 -i 0 -k RTR
r -t 51.033227507 -s 0 -d -1 -p AODV -e 48 -c 2 -a 0 -i 0 -k RTR
+ -t 51.037155714 -s 0 -d -1 -p AODV -e 48 -c 2 -a 0 -i 0 -k RTR 
- -t 51.037155714 -s 0 -d -1 -p AODV -e 48 -c 2 -a 0 -i 0 -k RTR
h -t 51.037155714 -s 0 -d -1 -p AODV -e 48 -c 2 -a 0 -i 0 -k RTR
+ -t 51.041527944 -s 2 -d -1 -p AODV -e 48 -c 2 -a 0 -i 0 -k RTR 
- -t 51.041527944 -s 2 -d -1 -p AODV -e 48 -c 2 -a 0 -i 0 -k RTR
h -t 51.041527944 -s 2 -d -1 -p AODV -e 48 -c 2 -a 0 -i 0 -k RTR
+ -t 51.709202507 -s 0 -d -1 -p AODV -e 48 -c 2 -a 0 -i 0 -k MAC 
- -t 51.709202507 -s 0 -d -1 -p AODV -e 48 -c 2 -a 0 -i 0 -k MAC
h -t 51.709202507 -s 0 -d -1 -p AODV -e 48 -c 2 -a 0 -i 0 -k MAC
r -t 51.752202714 -s 1 -d -1 -p AODV -e 48 -c 2 -a 0 -i 0 -k MAC
r -t 51.752227714 -s 1 -d -1 -p AODV -e 48 -c 2 -a 0 -i 0 -k RTR
+ -t 51.752262996 -s 1 -d -1 -p AODV -e 48 -c 2 -a 0 -i 0 -k RTR 
- -t 51.752262996 -s 1 -d -1 -p AODV -e 48 -c 2 -a 0 -i 0 -k RTR
h -t 51.752262996 -s 1 -d -1 -p AODV -e 48 -c 2 -a 0 -i 0 -k RTR
+ -t 52.000000000 -s 0 -d -1 -p AODV -e 48 -c 2 -a 0 -i 0 -k RTR 
- -t 52.000000000 -s 0 -d -1 -p AODV -e 48 -c 2 -a 0 -i 0 -k RTR
h -t 52.000000000 -s 0 -d -1 -p AODV -e 48 -c 2 -a 0 -i 0 -k RTR
+ -t 52.000000000 -s 3 -d -1 -p AODV -e 48 -c 2 -a 0 -i 0 -k RTR 
- -t 52.000000000 -s 3 -d -1 -p AODV -e 48 -c 2 -a 0 -i 0 -k RTR
h -t 52.000000000 -s 3 -d -1 -p AODV -e 48 -c 2 -a 0 -i 0 -k RTR
+ -t 52.353002507 -s 0 -d -1 -p smac -e 9 -c 2 -a 0 -i 0 -k MAC 
- -t 52.353002507 -s 0 -d -1 -p smac -e 9 -c 2 -a 0 -i 0 -k MAC
h -t 52.353002507 -s 0 -d -1 -p smac -e 9 -c 2 -a 0 -i 0 -k MAC
+ -t 52.411202714 -s 1 -d -1 -p AODV -e 48 -c 2 -a 0 -i 0 -k MAC 
- -t 52.411202714 -s 1 -d -1 -p AODV -e 48 -c 2 -a 0 -i 0 -k MAC
h -t 52.411202714 -s 1 -d -1 -p AODV -e 48 -c 2 -a 0 -i 0 -k MAC
r -t 52.454202901 -s 3 -d -1 -p AODV -e 48 -c 2 -a 0 -i 0 -k MAC
r -t 52.454202903 -s 2 -d -1 -p AODV -e 48 -c 2 -a 0 -i 0 -k MAC
r -t 52.454202918 -s 4 -d -1 -p AODV -e 48 -c 2 -a 0 -i 0 -k MAC
r -t 52.454202921 -s 0 -d -1 -p AODV -e 48 -c 2 -a 0 -i 0 -k MAC
r -t 52.454227901 -s 3 -d -1 -p AODV -e 48 -c 2 -a 0 -i 0 -k RTR
r -t 52.454227903 -s 2 -d -1 -p AODV -e 48 -c 2 -a 0 -i 0 -k RTR
+ -t 52.454227903 -s 2 -d 1 -p AODV -e 44 -c 2 -a 0 -i 0 -k RTR 
- -t 52.454227903 -s 2 -d 1 -p AODV -e 44 -c 2 -a 0 -i 0 -k RTR
h -t 52.454227903 -s 2 -d 1 -p AODV -e 44 -c 2 -a 0 -i 0 -k RTR
r -t 52.454227918 -s 4 -d -1 -p AODV -e 48 -c 2 -a 0 -i 0 -k RTR
r -t 52.454227921 -s 0 -d -1 -p AODV -e 48 -c 2 -a 0 -i 0 -k RTR
+ -t 52.454307265 -s 4 -d -1 -p AODV -e 48 -c 2 -a 0 -i 0 -k RTR 
- -t 52.454307265 -s 4 -d -1 -p AODV -e 48 -c 2 -a 0 -i 0 -k RTR
h -t 52.454307265 -s 4 -d -1 -p AODV -e 48 -c 2 -a 0 -i 0 -k RTR
+ -t 52.457307388 -s 3 -d -1 -p AODV -e 48 -c 2 -a 0 -i 0 -k RTR 
- -t 52.457307388 -s 3 -d -1 -p AODV -e 48 -c 2 -a 0 -i 0 -k RTR
h -t 52.457307388 -s 3 -d -1 -p AODV -e 48 -c 2 -a 0 -i 0 -k RTR
+ -t 53.085002488 -s 3 -d -1 -p smac -e 9 -c 2 -a 0 -i 0 -k MAC 
- -t 53.085002488 -s 3 -d -1 -p smac -e 9 -c 2 -a 0 -i 0 -k MAC
h -t 53.085002488 -s 3 -d -1 -p smac -e 9 -c 2 -a 0 -i 0 -k MAC
+ -t 53.139202488 -s 3 -d -1 -p AODV -e 48 -c 2 -a 0 -i 0 -k MAC 
- -t 53.139202488 -s 3 -d -1 -p AODV -e 48 -c 2 -a 0 -i 0 -k MAC
h -t 53.139202488 -s 3 -d -1 -p AODV -e 48 -c 2 -a 0 -i 0 -k MAC
r -t 53.182202676 -s 1 -d -1 -p AODV -e 48 -c 2 -a 0 -i 0 -k MAC
r -t 53.182227676 -s 1 -d -1 -p AODV -e 48 -c 2 -a 0 -i 0 -k RTR
+ -t 53.188652776 -s 1 -d -1 -p AODV -e 48 -c 2 -a 0 -i 0 -k RTR 
- -t 53.188652776 -s 1 -d -1 -p AODV -e 48 -c 2 -a 0 -i 0 -k RTR
h -t 53.188652776 -s 1 -d -1 -p AODV -e 48 -c 2 -a 0 -i 0 -k RTR
+ -t 53.790002505 -s 4 -d -1 -p smac -e 9 -c 2 -a 0 -i 0 -k MAC 
- -t 53.790002505 -s 4 -d -1 -p smac -e 9 -c 2 -a 0 -i 0 -k MAC
h -t 53.790002505 -s 4 -d -1 -p smac -e 9 -c 2 -a 0 -i 0 -k MAC
+ -t 53.844202505 -s 4 -d -1 -p ARP -e 28 -c 2 -a 0 -i 0 -k MAC 
- -t 53.844202505 -s 4 -d -1 -p ARP -e 28 -c 2 -a 0 -i 0 -k MAC
h -t 53.844202505 -s 4 -d -1 -p ARP -e 28 -c 2 -a 0 -i 0 -k MAC
r -t 53.887202708 -s 1 -d -1 -p ARP -e 28 -c 2 -a 0 -i 0 -k MAC
+ -t 54.523002490 -s 2 -d -1 -p smac -e 9 -c 2 -a 0 -i 0 -k MAC 
- -t 54.523002490 -s 2 -d -1 -p smac -e 9 -c 2 -a 0 -i 0 -k MAC
h -t 54.523002490 -s 2 -d -1 -p smac -e 9 -c 2 -a 0 -i 0 -k MAC
+ -t 54.557202678 -s 1 -d -1 -p AODV -e 48 -c 2 -a 0 -i 0 -k MAC 
- -t 54.557202678 -s 1 -d -1 -p AODV -e 48 -c 2 -a 0 -i 0 -k MAC
h -t 54.557202678 -s 1 -d -1 -p AODV -e 48 -c 2 -a 0 -i 0 -k MAC
r -t 54.600202866 -s 3 -d -1 -p AODV -e 48 -c 2 -a 0 -i 0 -k MAC
r -t 54.600202867 -s 2 -d -1 -p AODV -e 48 -c 2 -a 0 -i 0 -k MAC
r -t 54.600202882 -s 4 -d -1 -p AODV -e 48 -c 2 -a 0 -i 0 -k MAC
r -t 54.600202885 -s 0 -d -1 -p AODV -e 48 -c 2 -a 0 -i 0 -k MAC
r -t 54.600227866 -s 3 -d -1 -p AODV -e 48 -c 2 -a 0 -i 0 -k RTR
r -t 54.600227867 -s 2 -d -1 -p AODV -e 48 -c 2 -a 0 -i 0 -k RTR
r -t 54.600227882 -s 4 -d -1 -p AODV -e 48 -c 2 -a 0 -i 0 -k RTR
+ -t 54.600227882 -s 4 -d 1 -p AODV -e 44 -c 2 -a 0 -i 0 -k RTR 
- -t 54.600227882 -s 4 -d 1 -p AODV -e 44 -c 2 -a 0 -i 0 -k RTR
h -t 54.600227882 -s 4 -d 1 -p AODV -e 44 -c 2 -a 0 -i 0 -k RTR
d -t 54.600227882 -s 4 -d 1 -p AODV -e 44 -c 2 -a 0 -i 0 -k IFQ
r -t 54.600227885 -s 0 -d -1 -p AODV -e 48 -c 2 -a 0 -i 0 -k RTR
+ -t 54.605428881 -s 2 -d -1 -p AODV -e 48 -c 2 -a 0 -i 0 -k RTR 
- -t 54.605428881 -s 2 -d -1 -p AODV -e 48 -c 2 -a 0 -i 0 -k RTR
h -t 54.605428881 -s 2 -d -1 -p AODV -e 48 -c 2 -a 0 -i 0 -k RTR
+ -t 54.608786908 -s 0 -d -1 -p AODV -e 48 -c 2 -a 0 -i 0 -k RTR 
- -t 54.608786908 -s 0 -d -1 -p AODV -e 48 -c 2 -a 0 -i 0 -k RTR
h -t 54.608786908 -s 0 -d -1 -p AODV -e 48 -c 2 -a 0 -i 0 -k RTR
+ -t 55.249002678 -s 1 -d -1 -p smac -e 9 -c 2 -a 0 -i 0 -k MAC 
- -t 55.249002678 -s 1 -d -1 -p smac -e 9 -c 2 -a 0 -i 0 -k MAC
h -t 55.249002678 -s 1 -d -1 -p smac -e 9 -c 2 -a 0 -i 0 -k MAC
+ -t 55.284202885 -s 0 -d -1 -p AODV -e 48 -c 2 -a 0 -i 0 -k MAC 
- -t 55.284202885 -s 0 -d -1 -p AODV -e 48 -c 2 -a 0 -i 0 -k MAC
h -t 55.284202885 -s 0 -d -1 -p AODV -e 48 -c 2 -a 0 -i 0 -k MAC
r -t 55.327203092 -s 1 -d -1 -p AODV -e 48 -c 2 -a 0 -i 0 -k MAC
r -t 55.327228092 -s 1 -d -1 -p AODV -e 48 -c 2 -a 0 -i 0 -k RTR
+ -t 55.996202885 -s 0 -d -1 -p AODV -e 48 -c 2 -a 0 -i 0 -k MAC 
- -t 55.996202885 -s 0 -d -1 -p AODV -e 48 -c 2 -a 0 -i 0 -k MAC
h -t 55.996202885 -s 0 -d -1 -p AODV -e 48 -c 2 -a 0 -i 0 -k MAC
+ -t 56.000000000 -s 0 -d -1 -p AODV -e 48 -c 2 -a 0 -i 0 -k RTR 
- -t 56.000000000 -s 0 -d -1 -p AODV -e 48 -c 2 -a 0 -i 0 -k RTR
h -t 56.000000000 -s 0 -d -1 -p AODV -e 48 -c 2 -a 0 -i 0 -k RTR
+ -t 56.000000000 -s 3 -d -1 -p AODV -e 48 -c 2 -a 0 -i 0 -k RTR 
- -t 56.000000000 -s 3 -d -1 -p AODV -e 48 -c 2 -a 0 -i 0 -k RTR
h -t 56.000000000 -s 3 -d -1 -p AODV -e 48 -c 2 -a 0 -i 0 -k RTR
r -t 56.039203092 -s 1 -d -1 -p AODV -e 48 -c 2 -a 0 -i 0 -k MAC
r -t 56.039228092 -s 1 -d -1 -p AODV -e 48 -c 2 -a 0 -i 0 -k RTR
+ -t 56.715202882 -s 4 -d -1 -p AODV -e 48 -c 2 -a 0 -i 0 -k MAC 
- -t 56.715202882 -s 4 -d -1 -p AODV -e 48 -c 2 -a 0 -i 0 -k MAC
h -t 56.715202882 -s 4 -d -1 -p AODV -e 48 -c 2 -a 0 -i 0 -k MAC
r -t 56.758203086 -s 1 -d -1 -p AODV -e 48 -c 2 -a 0 -i 0 -k MAC
r -t 56.758228086 -s 1 -d -1 -p AODV -e 48 -c 2 -a 0 -i 0 -k RTR
+ -t 57.447202866 -s 3 -d -1 -p AODV -e 48 -c 2 -a 0 -i 0 -k MAC 
- -t 57.447202866 -s 3 -d -1 -p AODV -e 48 -c 2 -a 0 -i 0 -k MAC
h -t 57.447202866 -s 3 -d -1 -p AODV -e 48 -c 2 -a 0 -i 0 -k MAC
r -t 57.490203053 -s 1 -d -1 -p AODV -e 48 -c 2 -a 0 -i 0 -k MAC
r -t 57.490228053 -s 1 -d -1 -p AODV -e 48 -c 2 -a 0 -i 0 -k RTR
+ -t 57.804285084 -s 3 -d -1 -p cbr -e 50 -c 2 -a 0 -i 2 -k AGT 
- -t 57.804285084 -s 3 -d -1 -p cbr -e 50 -c 2 -a 0 -i 2 -k AGT
h -t 57.804285084 -s 3 -d -1 -p cbr -e 50 -c 2 -a 0 -i 2 -k AGT
+ -t 58.156202885 -s 0 -d -1 -p AODV -e 48 -c 2 -a 0 -i 0 -k MAC 
- -t 58.156202885 -s 0 -d -1 -p AODV -e 48 -c 2 -a 0 -i 0 -k MAC
h -t 58.156202885 -s 0 -d -1 -p AODV -e 48 -c 2 -a 0 -i 0 -k MAC
r -t 58.199203092 -s 1 -d -1 -p AODV -e 48 -c 2 -a 0 -i 0 -k MAC
r -t 58.199228092 -s 1 -d -1 -p AODV -e 48 -c 2 -a 0 -i 0 -k RTR
+ -t 58.199702576 -s 1 -d -1 -p AODV -e 48 -c 2 -a 0 -i 0 -k RTR 
- -t 58.199702576 -s 1 -d -1 -p AODV -e 48 -c 2 -a 0 -i 0 -k RTR
h -t 58.199702576 -s 1 -d -1 -p AODV -e 48 -c 2 -a 0 -i 0 -k RTR
+ -t 58.863202866 -s 3 -d -1 -p AODV -e 48 -c 2 -a 0 -i 0 -k MAC 
- -t 58.863202866 -s 3 -d -1 -p AODV -e 48 -c 2 -a 0 -i 0 -k MAC
h -t 58.863202866 -s 3 -d -1 -p AODV -e 48 -c 2 -a 0 -i 0 -k MAC
r -t 58.906203053 -s 1 -d -1 -p AODV -e 48 -c 2 -a 0 -i 0 -k MAC
r -t 58.906228053 -s 1 -d -1 -p AODV -e 48 -c 2 -a 0 -i 0 -k RTR
+ -t 58.909849830 -s 1 -d -1 -p AODV -e 48 -c 2 -a 0 -i 0 -k RTR 
- -t 58.909849830 -s 1 -d -1 -p AODV -e 48 -c 2 -a 0 -i 0 -k RTR
h -t 58.909849830 -s 1 -d -1 -p AODV -e 48 -c 2 -a 0 -i 0 -k RTR
+ -t 59.549002885 -s 0 -d -1 -p smac -e 9 -c 2 -a 0 -i 0 -k MAC 
- -t 59.549002885 -s 0 -d -1 -p smac -e 9 -c 2 -a 0 -i 0 -k MAC
h -t 59.549002885 -s 0 -d -1 -p smac -e 9 -c 2 -a 0 -i 0 -k MAC
+ -t 59.591203092 -s 1 -d -1 -p smac -e 10 -c 2 -a 0 -i 0 -k MAC 
- -t 59.591203092 -s 1 -d -1 -p smac -e 10 -c 2 -a 0 -i 0 -k MAC
h -t 59.591203092 -s 1 -d -1 -p smac -e 10 -c 2 -a 0 -i 0 -k MAC
+ -t 59.602203295 -s 4 -d -1 -p smac -e 10 -c 2 -a 0 -i 0 -k MAC 
- -t 59.602203295 -s 4 -d -1 -p smac -e 10 -c 2 -a 0 -i 0 -k MAC
h -t 59.602203295 -s 4 -d -1 -p smac -e 10 -c 2 -a 0 -i 0 -k MAC
+ -t 59.613203499 -s 1 -d -1 -p ARP -e 28 -c 2 -a 0 -i 0 -k MAC 
- -t 59.613203499 -s 1 -d -1 -p ARP -e 28 -c 2 -a 0 -i 0 -k MAC
h -t 59.613203499 -s 1 -d -1 -p ARP -e 28 -c 2 -a 0 -i 0 -k MAC
+ -t 59.656203703 -s 4 -d -1 -p smac -e 10 -c 2 -a 0 -i 0 -k MAC 
- -t 59.656203703 -s 4 -d -1 -p smac -e 10 -c 2 -a 0 -i 0 -k MAC
h -t 59.656203703 -s 4 -d -1 -p smac -e 10 -c 2 -a 0 -i 0 -k MAC
r -t 59.656203703 -s 4 -d -1 -p ARP -e 28 -c 2 -a 0 -i 0 -k MAC
+ -t 60.245002866 -s 3 -d -1 -p smac -e 9 -c 2 -a 0 -i 0 -k MAC 
- -t 60.245002866 -s 3 -d -1 -p smac -e 9 -c 2 -a 0 -i 0 -k MAC
h -t 60.245002866 -s 3 -d -1 -p smac -e 9 -c 2 -a 0 -i 0 -k MAC
+ -t 60.322203053 -s 1 -d -1 -p AODV -e 48 -c 2 -a 0 -i 0 -k MAC 
- -t 60.322203053 -s 1 -d -1 -p AODV -e 48 -c 2 -a 0 -i 0 -k MAC
h -t 60.322203053 -s 1 -d -1 -p AODV -e 48 -c 2 -a 0 -i 0 -k MAC
r -t 60.365203241 -s 3 -d -1 -p AODV -e 48 -c 2 -a 0 -i 0 -k MAC
r -t 60.365203242 -s 2 -d -1 -p AODV -e 48 -c 2 -a 0 -i 0 -k MAC
r -t 60.365203257 -s 4 -d -1 -p AODV -e 48 -c 2 -a 0 -i 0 -k MAC
r -t 60.365203260 -s 0 -d -1 -p AODV -e 48 -c 2 -a 0 -i 0 -k MAC
r -t 60.365228241 -s 3 -d -1 -p AODV -e 48 -c 2 -a 0 -i 0 -k RTR
r -t 60.365228242 -s 2 -d -1 -p AODV -e 48 -c 2 -a 0 -i 0 -k RTR
r -t 60.365228257 -s 4 -d -1 -p AODV -e 48 -c 2 -a 0 -i 0 -k RTR
+ -t 60.365228257 -s 4 -d 1 -p AODV -e 44 -c 2 -a 0 -i 0 -k RTR 
- -t 60.365228257 -s 4 -d 1 -p AODV -e 44 -c 2 -a 0 -i 0 -k RTR
h -t 60.365228257 -s 4 -d 1 -p AODV -e 44 -c 2 -a 0 -i 0 -k RTR
r -t 60.365228260 -s 0 -d -1 -p AODV -e 48 -c 2 -a 0 -i 0 -k RTR
+ -t 60.367784955 -s 2 -d -1 -p AODV -e 48 -c 2 -a 0 -i 0 -k RTR 
- -t 60.367784955 -s 2 -d -1 -p AODV -e 48 -c 2 -a 0 -i 0 -k RTR
h -t 60.367784955 -s 2 -d -1 -p AODV -e 48 -c 2 -a 0 -i 0 -k RTR
+ -t 60.369447620 -s 0 -d -1 -p AODV -e 48 -c 2 -a 0 -i 0 -k RTR 
- -t 60.369447620 -s 0 -d -1 -p AODV -e 48 -c 2 -a 0 -i 0 -k RTR
h -t 60.369447620 -s 0 -d -1 -p AODV -e 48 -c 2 -a 0 -i 0 -k RTR
+ -t 60.955002882 -s 4 -d -1 -p smac -e 9 -c 2 -a 0 -i 0 -k MAC 
- -t 60.955002882 -s 4 -d -1 -p smac -e 9 -c 2 -a 0 -i 0 -k MAC
h -t 60.955002882 -s 4 -d -1 -p smac -e 9 -c 2 -a 0 -i 0 -k MAC
+ -t 61.014203086 -s 1 -d -1 -p AODV -e 48 -c 2 -a 0 -i 0 -k MAC 
- -t 61.014203086 -s 1 -d -1 -p AODV -e 48 -c 2 -a 0 -i 0 -k MAC
h -t 61.014203086 -s 1 -d -1 -p AODV -e 48 -c 2 -a 0 -i 0 -k MAC
r -t 61.057203273 -s 3 -d -1 -p AODV -e 48 -c 2 -a 0 -i 0 -k MAC
r -t 61.057203275 -s 2 -d -1 -p AODV -e 48 -c 2 -a 0 -i 0 -k MAC
r -t 61.057203290 -s 4 -d -1 -p AODV -e 48 -c 2 -a 0 -i 0 -k MAC
r -t 61.057203292 -s 0 -d -1 -p AODV -e 48 -c 2 -a 0 -i 0 -k MAC
r -t 61.057228273 -s 3 -d -1 -p AODV -e 48 -c 2 -a 0 -i 0 -k RTR
r -t 61.057228275 -s 2 -d -1 -p AODV -e 48 -c 2 -a 0 -i 0 -k RTR
+ -t 61.057228275 -s 2 -d 1 -p AODV -e 44 -c 2 -a 0 -i 0 -k RTR 
- -t 61.057228275 -s 2 -d 1 -p AODV -e 44 -c 2 -a 0 -i 0 -k RTR
h -t 61.057228275 -s 2 -d 1 -p AODV -e 44 -c 2 -a 0 -i 0 -k RTR
d -t 61.057228275 -s 2 -d 1 -p AODV -e 44 -c 2 -a 0 -i 0 -k IFQ
r -t 61.057228290 -s 4 -d -1 -p AODV -e 48 -c 2 -a 0 -i 0 -k RTR
r -t 61.057228292 -s 0 -d -1 -p AODV -e 48 -c 2 -a 0 -i 0 -k RTR
+ -t 61.059660818 -s 4 -d -1 -p AODV -e 48 -c 2 -a 0 -i 0 -k RTR 
- -t 61.059660818 -s 4 -d -1 -p AODV -e 48 -c 2 -a 0 -i 0 -k RTR
h -t 61.059660818 -s 4 -d -1 -p AODV -e 48 -c 2 -a 0 -i 0 -k RTR
+ -t 61.062969960 -s 3 -d -1 -p AODV -e 48 -c 2 -a 0 -i 0 -k RTR 
- -t 61.062969960 -s 3 -d -1 -p AODV -e 48 -c 2 -a 0 -i 0 -k RTR
h -t 61.062969960 -s 3 -d -1 -p AODV -e 48 -c 2 -a 0 -i 0 -k RTR
+ -t 61.500000000 -s 0 -d -1 -p AODV -e 48 -c 2 -a 0 -i 0 -k RTR 
- -t 61.500000000 -s 0 -d -1 -p AODV -e 48 -c 2 -a 0 -i 0 -k RTR
h -t 61.500000000 -s 0 -d -1 -p AODV -e 48 -c 2 -a 0 -i 0 -k RTR
+ -t 61.500000000 -s 3 -d -1 -p AODV -e 48 -c 2 -a 0 -i 0 -k RTR 
- -t 61.500000000 -s 3 -d -1 -p AODV -e 48 -c 2 -a 0 -i 0 -k RTR
h -t 61.500000000 -s 3 -d -1 -p AODV -e 48 -c 2 -a 0 -i 0 -k RTR
+ -t 61.694002867 -s 2 -d -1 -p smac -e 9 -c 2 -a 0 -i 0 -k MAC 
- -t 61.694002867 -s 2 -d -1 -p smac -e 9 -c 2 -a 0 -i 0 -k MAC
h -t 61.694002867 -s 2 -d -1 -p smac -e 9 -c 2 -a 0 -i 0 -k MAC
+ -t 61.764202867 -s 2 -d -1 -p AODV -e 48 -c 2 -a 0 -i 0 -k MAC 
- -t 61.764202867 -s 2 -d -1 -p AODV -e 48 -c 2 -a 0 -i 0 -k MAC
h -t 61.764202867 -s 2 -d -1 -p AODV -e 48 -c 2 -a 0 -i 0 -k MAC
r -t 61.807203056 -s 1 -d -1 -p AODV -e 48 -c 2 -a 0 -i 0 -k MAC
r -t 61.807228056 -s 1 -d -1 -p AODV -e 48 -c 2 -a 0 -i 0 -k RTR
+ -t 61.815580481 -s 1 -d -1 -p AODV -e 48 -c 2 -a 0 -i 0 -k RTR 
- -t 61.815580481 -s 1 -d -1 -p AODV -e 48 -c 2 -a 0 -i 0 -k RTR
h -t 61.815580481 -s 1 -d -1 -p AODV -e 48 -c 2 -a 0 -i 0 -k RTR
+ -t 62.392003056 -s 1 -d -1 -p smac -e 9 -c 2 -a 0 -i 0 -k MAC 
- -t 62.392003056 -s 1 -d -1 -p smac -e 9 -c 2 -a 0 -i 0 -k MAC
h -t 62.392003056 -s 1 -d -1 -p smac -e 9 -c 2 -a 0 -i 0 -k MAC
+ -t 62.456203056 -s 1 -d -1 -p AODV -e 48 -c 2 -a 0 -i 0 -k MAC 
- -t 62.456203056 -s 1 -d -1 -p AODV -e 48 -c 2 -a 0 -i 0 -k MAC
h -t 62.456203056 -s 1 -d -1 -p AODV -e 48 -c 2 -a 0 -i 0 -k MAC
r -t 62.499203244 -s 3 -d -1 -p AODV -e 48 -c 2 -a 0 -i 0 -k MAC
r -t 62.499203245 -s 2 -d -1 -p AODV -e 48 -c 2 -a 0 -i 0 -k MAC
r -t 62.499203260 -s 4 -d -1 -p AODV -e 48 -c 2 -a 0 -i 0 -k MAC
r -t 62.499203263 -s 0 -d -1 -p AODV -e 48 -c 2 -a 0 -i 0 -k MAC
r -t 62.499228244 -s 3 -d -1 -p AODV -e 48 -c 2 -a 0 -i 0 -k RTR
r -t 62.499228245 -s 2 -d -1 -p AODV -e 48 -c 2 -a 0 -i 0 -k RTR
r -t 62.499228260 -s 4 -d -1 -p AODV -e 48 -c 2 -a 0 -i 0 -k RTR
+ -t 62.499228260 -s 4 -d 1 -p AODV -e 44 -c 2 -a 0 -i 0 -k RTR 
- -t 62.499228260 -s 4 -d 1 -p AODV -e 44 -c 2 -a 0 -i 0 -k RTR
h -t 62.499228260 -s 4 -d 1 -p AODV -e 44 -c 2 -a 0 -i 0 -k RTR
r -t 62.499228263 -s 0 -d -1 -p AODV -e 48 -c 2 -a 0 -i 0 -k RTR
+ -t 62.508459029 -s 0 -d -1 -p AODV -e 48 -c 2 -a 0 -i 0 -k RTR 
- -t 62.508459029 -s 0 -d -1 -p AODV -e 48 -c 2 -a 0 -i 0 -k RTR
h -t 62.508459029 -s 0 -d -1 -p AODV -e 48 -c 2 -a 0 -i 0 -k RTR
+ -t 62.509194963 -s 2 -d -1 -p AODV -e 48 -c 2 -a 0 -i 0 -k RTR 
- -t 62.509194963 -s 2 -d -1 -p AODV -e 48 -c 2 -a 0 -i 0 -k RTR
h -t 62.509194963 -s 2 -d -1 -p AODV -e 48 -c 2 -a 0 -i 0 -k RTR
+ -t 63.170203244 -s 3 -d -1 -p AODV -e 48 -c 2 -a 0 -i 0 -k MAC 
- -t 63.170203244 -s 3 -d -1 -p AODV -e 48 -c 2 -a 0 -i 0 -k MAC
h -t 63.170203244 -s 3 -d -1 -p AODV -e 48 -c 2 -a 0 -i 0 -k MAC
r -t 63.213203431 -s 1 -d -1 -p AODV -e 48 -c 2 -a 0 -i 0 -k MAC
r -t 63.213228431 -s 1 -d -1 -p AODV -e 48 -c 2 -a 0 -i 0 -k RTR
+ -t 63.545554818 -s 0 -d -1 -p cbr -e 50 -c 2 -a 0 -i 3 -k AGT 
- -t 63.545554818 -s 0 -d -1 -p cbr -e 50 -c 2 -a 0 -i 3 -k AGT
h -t 63.545554818 -s 0 -d -1 -p cbr -e 50 -c 2 -a 0 -i 3 -k AGT
+ -t 63.890203260 -s 4 -d -1 -p ARP -e 28 -c 2 -a 0 -i 0 -k MAC 
- -t 63.890203260 -s 4 -d -1 -p ARP -e 28 -c 2 -a 0 -i 0 -k MAC
h -t 63.890203260 -s 4 -d -1 -p ARP -e 28 -c 2 -a 0 -i 0 -k MAC
r -t 63.933203463 -s 1 -d -1 -p ARP -e 28 -c 2 -a 0 -i 0 -k MAC
+ -t 64.600203244 -s 3 -d -1 -p AODV -e 48 -c 2 -a 0 -i 0 -k MAC 
- -t 64.600203244 -s 3 -d -1 -p AODV -e 48 -c 2 -a 0 -i 0 -k MAC
h -t 64.600203244 -s 3 -d -1 -p AODV -e 48 -c 2 -a 0 -i 0 -k MAC
r -t 64.643203431 -s 1 -d -1 -p AODV -e 48 -c 2 -a 0 -i 0 -k MAC
r -t 64.643228431 -s 1 -d -1 -p AODV -e 48 -c 2 -a 0 -i 0 -k RTR
+ -t 64.647687530 -s 1 -d -1 -p AODV -e 48 -c 2 -a 0 -i 0 -k RTR 
- -t 64.647687530 -s 1 -d -1 -p AODV -e 48 -c 2 -a 0 -i 0 -k RTR
h -t 64.647687530 -s 1 -d -1 -p AODV -e 48 -c 2 -a 0 -i 0 -k RTR
+ -t 65.319203260 -s 4 -d -1 -p smac -e 10 -c 2 -a 0 -i 0 -k MAC 
- -t 65.319203260 -s 4 -d -1 -p smac -e 10 -c 2 -a 0 -i 0 -k MAC
h -t 65.319203260 -s 4 -d -1 -p smac -e 10 -c 2 -a 0 -i 0 -k MAC
+ -t 65.330203463 -s 1 -d -1 -p smac -e 10 -c 2 -a 0 -i 0 -k MAC 
- -t 65.330203463 -s 1 -d -1 -p smac -e 10 -c 2 -a 0 -i 0 -k MAC
h -t 65.330203463 -s 1 -d -1 -p smac -e 10 -c 2 -a 0 -i 0 -k MAC
+ -t 65.341203667 -s 4 -d 1 -p AODV -e 44 -c 2 -a 0 -i 0 -k MAC 
- -t 65.341203667 -s 4 -d 1 -p AODV -e 44 -c 2 -a 0 -i 0 -k MAC
h -t 65.341203667 -s 4 -d 1 -p AODV -e 44 -c 2 -a 0 -i 0 -k MAC
+ -t 65.384203871 -s 1 -d -1 -p smac -e 10 -c 2 -a 0 -i 0 -k MAC 
- -t 65.384203871 -s 1 -d -1 -p smac -e 10 -c 2 -a 0 -i 0 -k MAC
h -t 65.384203871 -s 1 -d -1 -p smac -e 10 -c 2 -a 0 -i 0 -k MAC
r -t 65.384203871 -s 1 -d 1 -p AODV -e 44 -c 2 -a 0 -i 0 -k MAC
+ -t 65.384228871 -s 1 -d 3 -p AODV -e 44 -c 2 -a 0 -i 0 -k RTR 
- -t 65.384228871 -s 1 -d 3 -p AODV -e 44 -c 2 -a 0 -i 0 -k RTR
h -t 65.384228871 -s 1 -d 3 -p AODV -e 44 -c 2 -a 0 -i 0 -k RTR
+ -t 66.029203260 -s 4 -d -1 -p AODV -e 48 -c 2 -a 0 -i 0 -k MAC 
- -t 66.029203260 -s 4 -d -1 -p AODV -e 48 -c 2 -a 0 -i 0 -k MAC
h -t 66.029203260 -s 4 -d -1 -p AODV -e 48 -c 2 -a 0 -i 0 -k MAC
r -t 66.072203463 -s 1 -d -1 -p AODV -e 48 -c 2 -a 0 -i 0 -k MAC
r -t 66.072228463 -s 1 -d -1 -p AODV -e 48 -c 2 -a 0 -i 0 -k RTR
+ -t 66.073908740 -s 1 -d -1 -p AODV -e 48 -c 2 -a 0 -i 0 -k RTR 
- -t 66.073908740 -s 1 -d -1 -p AODV -e 48 -c 2 -a 0 -i 0 -k RTR
h -t 66.073908740 -s 1 -d -1 -p AODV -e 48 -c 2 -a 0 -i 0 -k RTR
+ -t 66.721003263 -s 0 -d -1 -p smac -e 9 -c 2 -a 0 -i 0 -k MAC 
- -t 66.721003263 -s 0 -d -1 -p smac -e 9 -c 2 -a 0 -i 0 -k MAC
h -t 66.721003263 -s 0 -d -1 -p smac -e 9 -c 2 -a 0 -i 0 -k MAC
+ -t 66.747203469 -s 1 -d -1 -p smac -e 10 -c 2 -a 0 -i 0 -k MAC 
- -t 66.747203469 -s 1 -d -1 -p smac -e 10 -c 2 -a 0 -i 0 -k MAC
h -t 66.747203469 -s 1 -d -1 -p smac -e 10 -c 2 -a 0 -i 0 -k MAC
+ -t 67.411003244 -s 3 -d -1 -p smac -e 9 -c 2 -a 0 -i 0 -k MAC 
- -t 67.411003244 -s 3 -d -1 -p smac -e 9 -c 2 -a 0 -i 0 -k MAC
h -t 67.411003244 -s 3 -d -1 -p smac -e 9 -c 2 -a 0 -i 0 -k MAC
+ -t 67.493203431 -s 1 -d -1 -p smac -e 10 -c 2 -a 0 -i 0 -k MAC 
- -t 67.493203431 -s 1 -d -1 -p smac -e 10 -c 2 -a 0 -i 0 -k MAC
h -t 67.493203431 -s 1 -d -1 -p smac -e 10 -c 2 -a 0 -i 0 -k MAC
+ -t 67.504203635 -s 4 -d -1 -p smac -e 10 -c 2 -a 0 -i 0 -k MAC 
- -t 67.504203635 -s 4 -d -1 -p smac -e 10 -c 2 -a 0 -i 0 -k MAC
h -t 67.504203635 -s 4 -d -1 -p smac -e 10 -c 2 -a 0 -i 0 -k MAC
+ -t 67.515203838 -s 1 -d -1 -p ARP -e 28 -c 2 -a 0 -i 0 -k MAC 
- -t 67.515203838 -s 1 -d -1 -p ARP -e 28 -c 2 -a 0 -i 0 -k MAC
h -t 67.515203838 -s 1 -d -1 -p ARP -e 28 -c 2 -a 0 -i 0 -k MAC
+ -t 67.558204042 -s 4 -d -1 -p smac -e 10 -c 2 -a 0 -i 0 -k MAC 
- -t 67.558204042 -s 4 -d -1 -p smac -e 10 -c 2 -a 0 -i 0 -k MAC
h -t 67.558204042 -s 4 -d -1 -p smac -e 10 -c 2 -a 0 -i 0 -k MAC
r -t 67.558204042 -s 4 -d -1 -p ARP -e 28 -c 2 -a 0 -i 0 -k MAC
+ -t 68.142003260 -s 4 -d -1 -p smac -e 9 -c 2 -a 0 -i 0 -k MAC 
- -t 68.142003260 -s 4 -d -1 -p smac -e 9 -c 2 -a 0 -i 0 -k MAC
h -t 68.142003260 -s 4 -d -1 -p smac -e 9 -c 2 -a 0 -i 0 -k MAC
+ -t 68.193203463 -s 1 -d -1 -p AODV -e 48 -c 2 -a 0 -i 0 -k MAC 
- -t 68.193203463 -s 1 -d -1 -p AODV -e 48 -c 2 -a 0 -i 0 -k MAC
h -t 68.193203463 -s 1 -d -1 -p AODV -e 48 -c 2 -a 0 -i 0 -k MAC
r -t 68.236203651 -s 3 -d -1 -p AODV -e 48 -c 2 -a 0 -i 0 -k MAC
r -t 68.236203652 -s 2 -d -1 -p AODV -e 48 -c 2 -a 0 -i 0 -k MAC
r -t 68.236203667 -s 4 -d -1 -p AODV -e 48 -c 2 -a 0 -i 0 -k MAC
r -t 68.236203670 -s 0 -d -1 -p AODV -e 48 -c 2 -a 0 -i 0 -k MAC
r -t 68.236228651 -s 3 -d -1 -p AODV -e 48 -c 2 -a 0 -i 0 -k RTR
r -t 68.236228652 -s 2 -d -1 -p AODV -e 48 -c 2 -a 0 -i 0 -k RTR
r -t 68.236228667 -s 4 -d -1 -p AODV -e 48 -c 2 -a 0 -i 0 -k RTR
r -t 68.236228670 -s 0 -d -1 -p AODV -e 48 -c 2 -a 0 -i 0 -k RTR
+ -t 68.613749310 -s 3 -d -1 -p cbr -e 50 -c 2 -a 0 -i 4 -k AGT 
- -t 68.613749310 -s 3 -d -1 -p cbr -e 50 -c 2 -a 0 -i 4 -k AGT
h -t 68.613749310 -s 3 -d -1 -p cbr -e 50 -c 2 -a 0 -i 4 -k AGT
+ -t 68.844003245 -s 2 -d -1 -p smac -e 9 -c 2 -a 0 -i 0 -k MAC 
- -t 68.844003245 -s 2 -d -1 -p smac -e 9 -c 2 -a 0 -i 0 -k MAC
h -t 68.844003245 -s 2 -d -1 -p smac -e 9 -c 2 -a 0 -i 0 -k MAC
+ -t 68.940203434 -s 1 -d -1 -p AODV -e 48 -c 2 -a 0 -i 0 -k MAC 
- -t 68.940203434 -s 1 -d -1 -p AODV -e 48 -c 2 -a 0 -i 0 -k MAC
h -t 68.940203434 -s 1 -d -1 -p AODV -e 48 -c 2 -a 0 -i 0 -k MAC
r -t 68.983203621 -s 3 -d -1 -p AODV -e 48 -c 2 -a 0 -i 0 -k MAC
r -t 68.983203622 -s 2 -d -1 -p AODV -e 48 -c 2 -a 0 -i 0 -k MAC