V -t * -v 1.0a5 -a 0
W -t * -x 800 -y 800
A -t * -n 1 -p 0 -o 0x7fffffff -c 30 -a 1
A -t * -h 1 -m 1073741823 -s 0
+ -t 0.008670709 -s 0 -d -1 -p message -e 32 -c 2 -a 0 -i 0 -k RTR 
- -t 0.008670709 -s 0 -d -1 -p message -e 32 -c 2 -a 0 -i 0 -k RTR
h -t 0.008670709 -s 0 -d -1 -p message -e 32 -c 2 -a 0 -i 0 -k RTR
+ -t 0.008945709 -s 0 -d -1 -p message -e 90 -c 2 -a 0 -i 0 -k MAC 
- -t 0.008945709 -s 0 -d -1 -p message -e 90 -c 2 -a 0 -i 0 -k MAC
h -t 0.008945709 -s 0 -d -1 -p message -e 90 -c 2 -a 0 -i 0 -k MAC
r -t 0.009665916 -s 1 -d -1 -p message -e 32 -c 2 -a 0 -i 0 -k MAC
r -t 0.009690916 -s 1 -d -1 -p message -e 32 -c 2 -a 0 -i 0 -k RTR
+ -t 0.028837267 -s 2 -d -1 -p message -e 32 -c 2 -a 0 -i 1 -k RTR 
- -t 0.028837267 -s 2 -d -1 -p message -e 32 -c 2 -a 0 -i 1 -k RTR
h -t 0.028837267 -s 2 -d -1 -p message -e 32 -c 2 -a 0 -i 1 -k RTR
+ -t 0.029272267 -s 2 -d -1 -p message -e 90 -c 2 -a 0 -i 1 -k MAC 
- -t 0.029272267 -s 2 -d -1 -p message -e 90 -c 2 -a 0 -i 1 -k MAC
h -t 0.029272267 -s 2 -d -1 -p message -e 90 -c 2 -a 0 -i 1 -k MAC
r -t 0.029992456 -s 1 -d -1 -p message -e 32 -c 2 -a 0 -i 1 -k MAC
r -t 0.030017456 -s 1 -d -1 -p message -e 32 -c 2 -a 0 -i 1 -k RTR
+ -t 0.179732753 -s 3 -d -1 -p message -e 32 -c 2 -a 0 -i 2 -k RTR 
- -t 0.179732753 -s 3 -d -1 -p message -e 32 -c 2 -a 0 -i 2 -k RTR
h -t 0.179732753 -s 3 -d -1 -p message -e 32 -c 2 -a 0 -i 2 -k RTR
+ -t 0.179827753 -s 3 -d -1 -p message -e 90 -c 2 -a 0 -i 2 -k MAC 
- -t 0.179827753 -s 3 -d -1 -p message -e 90 -c 2 -a 0 -i 2 -k MAC
h -t 0.179827753 -s 3 -d -1 -p message -e 90 -c 2 -a 0 -i 2 -k MAC
r -t 0.180547940 -s 1 -d -1 -p message -e 32 -c 2 -a 0 -i 2 -k MAC
r -t 0.180572940 -s 1 -d -1 -p message -e 32 -c 2 -a 0 -i 2 -k RTR
+ -t 0.884518359 -s 4 -d -1 -p message -e 32 -c 2 -a 0 -i 3 -k RTR 
- -t 0.884518359 -s 4 -d -1 -p message -e 32 -c 2 -a 0 -i 3 -k RTR
h -t 0.884518359 -s 4 -d -1 -p message -e 32 -c 2 -a 0 -i 3 -k RTR
+ -t 0.884633359 -s 4 -d -1 -p message -e 90 -c 2 -a 0 -i 3 -k MAC 
- -t 0.884633359 -s 4 -d -1 -p message -e 90 -c 2 -a 0 -i 3 -k MAC
h -t 0.884633359 -s 4 -d -1 -p message -e 90 -c 2 -a 0 -i 3 -k MAC
r -t 0.885353562 -s 1 -d -1 -p message -e 32 -c 2 -a 0 -i 3 -k MAC
r -t 0.885378562 -s 1 -d -1 -p message -e 32 -c 2 -a 0 -i 3 -k RTR
+ -t 1.115803507 -s 1 -d -1 -p message -e 32 -c 2 -a 0 -i 4 -k RTR 
- -t 1.115803507 -s 1 -d -1 -p message -e 32 -c 2 -a 0 -i 4 -k RTR
h -t 1.115803507 -s 1 -d -1 -p message -e 32 -c 2 -a 0 -i 4 -k RTR
+ -t 1.116398507 -s 1 -d -1 -p message -e 90 -c 2 -a 0 -i 4 -k MAC 
- -t 1.116398507 -s 1 -d -1 -p message -e 90 -c 2 -a 0 -i 4 -k MAC
h -t 1.116398507 -s 1 -d -1 -p message -e 90 -c 2 -a 0 -i 4 -k MAC
r -t 1.117118695 -s 3 -d -1 -p message -e 32 -c 2 -a 0 -i 4 -k MAC
r -t 1.117118696 -s 2 -d -1 -p message -e 32 -c 2 -a 0 -i 4 -k MAC
r -t 1.117118711 -s 4 -d -1 -p message -e 32 -c 2 -a 0 -i 4 -k MAC
r -t 1.117118714 -s 0 -d -1 -p message -e 32 -c 2 -a 0 -i 4 -k MAC
r -t 1.117143695 -s 3 -d -1 -p message -e 32 -c 2 -a 0 -i 4 -k RTR
r -t 1.117143696 -s 2 -d -1 -p message -e 32 -c 2 -a 0 -i 4 -k RTR
r -t 1.117143711 -s 4 -d -1 -p message -e 32 -c 2 -a 0 -i 4 -k RTR
r -t 1.117143714 -s 0 -d -1 -p message -e 32 -c 2 -a 0 -i 4 -k RTR
n -t 5.000000 -s 0 -x 275.211569 -y 185.706089 -U 0.000000 -V 0.000000 -T 0.000000
n -t 5.000000 -s 1 -x 230.805718 -y 228.918089 -U 0.000000 -V 0.000000 -T 0.000000
n -t 5.000000 -s 2 -x 184.744913 -y 261.871089 -U 0.000000 -V 0.000000 -T 0.000000
n -t 5.000000 -s 3 -x 274.412913 -y 264.456089 -U 0.000000 -V 0.000000 -T 0.000000
n -t 5.000000 -s 4 -x 184.098569 -y 189.503089 -U 0.000000 -V 0.000000 -T 0.000000
+ -t 12.015641189 -s 1 -d -1 -p message -e 32 -c 2 -a 0 -i 5 -k RTR 
- -t 12.015641189 -s 1 -d -1 -p message -e 32 -c 2 -a 0 -i 5 -k RTR
h -t 12.015641189 -s 1 -d -1 -p message -e 32 -c 2 -a 0 -i 5 -k RTR
+ -t 12.016216189 -s 1 -d -1 -p message -e 90 -c 2 -a 0 -i 5 -k MAC 
- -t 12.016216189 -s 1 -d -1 -p message -e 90 -c 2 -a 0 -i 5 -k MAC
h -t 12.016216189 -s 1 -d -1 -p message -e 90 -c 2 -a 0 -i 5 -k MAC
r -t 12.016936377 -s 3 -d -1 -p message -e 32 -c 2 -a 0 -i 5 -k MAC
r -t 12.016936378 -s 2 -d -1 -p message -e 32 -c 2 -a 0 -i 5 -k MAC
r -t 12.016936393 -s 4 -d -1 -p message -e 32 -c 2 -a 0 -i 5 -k MAC
r -t 12.016936396 -s 0 -d -1 -p message -e 32 -c 2 -a 0 -i 5 -k MAC
r -t 12.016961377 -s 3 -d -1 -p message -e 32 -c 2 -a 0 -i 5 -k RTR
r -t 12.016961378 -s 2 -d -1 -p message -e 32 -c 2 -a 0 -i 5 -k RTR
r -t 12.016961393 -s 4 -d -1 -p message -e 32 -c 2 -a 0 -i 5 -k RTR
r -t 12.016961396 -s 0 -d -1 -p message -e 32 -c 2 -a 0 -i 5 -k RTR
+ -t 12.402841707 -s 3 -d -1 -p message -e 32 -c 2 -a 0 -i 6 -k RTR 
- -t 12.402841707 -s 3 -d -1 -p message -e 32 -c 2 -a 0 -i 6 -k RTR
h -t 12.402841707 -s 3 -d -1 -p message -e 32 -c 2 -a 0 -i 6 -k RTR
+ -t 12.403076707 -s 3 -d -1 -p message -e 90 -c 2 -a 0 -i 6 -k MAC 
- -t 12.403076707 -s 3 -d -1 -p message -e 90 -c 2 -a 0 -i 6 -k MAC
h -t 12.403076707 -s 3 -d -1 -p message -e 90 -c 2 -a 0 -i 6 -k MAC
r -t 12.403796895 -s 1 -d -1 -p message -e 32 -c 2 -a 0 -i 6 -k MAC
r -t 12.403821895 -s 1 -d -1 -p message -e 32 -c 2 -a 0 -i 6 -k RTR
+ -t 12.433753960 -s 0 -d -1 -p message -e 32 -c 2 -a 0 -i 7 -k RTR 
- -t 12.433753960 -s 0 -d -1 -p message -e 32 -c 2 -a 0 -i 7 -k RTR
h -t 12.433753960 -s 0 -d -1 -p message -e 32 -c 2 -a 0 -i 7 -k RTR
+ -t 12.433848960 -s 0 -d -1 -p message -e 90 -c 2 -a 0 -i 7 -k MAC 
- -t 12.433848960 -s 0 -d -1 -p message -e 90 -c 2 -a 0 -i 7 -k MAC
h -t 12.433848960 -s 0 -d -1 -p message -e 90 -c 2 -a 0 -i 7 -k MAC
r -t 12.434569167 -s 1 -d -1 -p message -e 32 -c 2 -a 0 -i 7 -k MAC
r -t 12.434594167 -s 1 -d -1 -p message -e 32 -c 2 -a 0 -i 7 -k RTR
+ -t 13.010192250 -s 1 -d -1 -p message -e 44 -c 2 -a 0 -i 8 -k RTR 
- -t 13.010192250 -s 1 -d -1 -p message -e 44 -c 2 -a 0 -i 8 -k RTR
h -t 13.010192250 -s 1 -d -1 -p message -e 44 -c 2 -a 0 -i 8 -k RTR
+ -t 13.010387250 -s 1 -d -1 -p message -e 102 -c 2 -a 0 -i 8 -k MAC 
- -t 13.010387250 -s 1 -d -1 -p message -e 102 -c 2 -a 0 -i 8 -k MAC
h -t 13.010387250 -s 1 -d -1 -p message -e 102 -c 2 -a 0 -i 8 -k MAC
r -t 13.011203437 -s 3 -d -1 -p message -e 44 -c 2 -a 0 -i 8 -k MAC
r -t 13.011203438 -s 2 -d -1 -p message -e 44 -c 2 -a 0 -i 8 -k MAC
r -t 13.011203453 -s 4 -d -1 -p message -e 44 -c 2 -a 0 -i 8 -k MAC
r -t 13.011203456 -s 0 -d -1 -p message -e 44 -c 2 -a 0 -i 8 -k MAC
r -t 13.011228437 -s 3 -d -1 -p message -e 44 -c 2 -a 0 -i 8 -k RTR
r -t 13.011228438 -s 2 -d -1 -p message -e 44 -c 2 -a 0 -i 8 -k RTR
r -t 13.011228453 -s 4 -d -1 -p message -e 44 -c 2 -a 0 -i 8 -k RTR
r -t 13.011228456 -s 0 -d -1 -p message -e 44 -c 2 -a 0 -i 8 -k RTR
+ -t 13.045971345 -s 4 -d -1 -p message -e 32 -c 2 -a 0 -i 9 -k RTR 
- -t 13.045971345 -s 4 -d -1 -p message -e 32 -c 2 -a 0 -i 9 -k RTR
h -t 13.045971345 -s 4 -d -1 -p message -e 32 -c 2 -a 0 -i 9 -k RTR
+ -t 13.046646345 -s 4 -d -1 -p message -e 90 -c 2 -a 0 -i 9 -k MAC 
- -t 13.046646345 -s 4 -d -1 -p message -e 90 -c 2 -a 0 -i 9 -k MAC
h -t 13.046646345 -s 4 -d -1 -p message -e 90 -c 2 -a 0 -i 9 -k MAC
r -t 13.047366549 -s 1 -d -1 -p message -e 32 -c 2 -a 0 -i 9 -k MAC
r -t 13.047391549 -s 1 -d -1 -p message -e 32 -c 2 -a 0 -i 9 -k RTR
+ -t 13.072536912 -s 1 -d -1 -p message -e 44 -c 2 -a 0 -i 10 -k RTR 
- -t 13.072536912 -s 1 -d -1 -p message -e 44 -c 2 -a 0 -i 10 -k RTR
h -t 13.072536912 -s 1 -d -1 -p message -e 44 -c 2 -a 0 -i 10 -k RTR
+ -t 13.072911912 -s 1 -d -1 -p message -e 102 -c 2 -a 0 -i 10 -k MAC 
- -t 13.072911912 -s 1 -d -1 -p message -e 102 -c 2 -a 0 -i 10 -k MAC
h -t 13.072911912 -s 1 -d -1 -p message -e 102 -c 2 -a 0 -i 10 -k MAC
r -t 13.073728100 -s 3 -d -1 -p message -e 44 -c 2 -a 0 -i 10 -k MAC
r -t 13.073728101 -s 2 -d -1 -p message -e 44 -c 2 -a 0 -i 10 -k MAC
r -t 13.073728116 -s 4 -d -1 -p message -e 44 -c 2 -a 0 -i 10 -k MAC
r -t 13.073728119 -s 0 -d -1 -p message -e 44 -c 2 -a 0 -i 10 -k MAC
r -t 13.073753100 -s 3 -d -1 -p message -e 44 -c 2 -a 0 -i 10 -k RTR
r -t 13.073753101 -s 2 -d -1 -p message -e 44 -c 2 -a 0 -i 10 -k RTR
r -t 13.073753116 -s 4 -d -1 -p message -e 44 -c 2 -a 0 -i 10 -k RTR
r -t 13.073753119 -s 0 -d -1 -p message -e 44 -c 2 -a 0 -i 10 -k RTR
+ -t 13.679497342 -s 2 -d -1 -p message -e 32 -c 2 -a 0 -i 14 -k RTR 
- -t 13.679497342 -s 2 -d -1 -p message -e 32 -c 2 -a 0 -i 14 -k RTR
h -t 13.679497342 -s 2 -d -1 -p message -e 32 -c 2 -a 0 -i 14 -k RTR
+ -t 13.679732342 -s 2 -d -1 -p message -e 90 -c 2 -a 0 -i 14 -k MAC 
- -t 13.679732342 -s 2 -d -1 -p message -e 90 -c 2 -a 0 -i 14 -k MAC
h -t 13.679732342 -s 2 -d -1 -p message -e 90 -c 2 -a 0 -i 14 -k MAC
r -t 13.680452531 -s 1 -d -1 -p message -e 32 -c 2 -a 0 -i 14 -k MAC
r -t 13.680477531 -s 1 -d -1 -p message -e 32 -c 2 -a 0 -i 14 -k RTR
+ -t 24.020178725 -s 3 -d -1 -p message -e 44 -c 2 -a 0 -i 16 -k RTR 
- -t 24.020178725 -s 3 -d -1 -p message -e 44 -c 2 -a 0 -i 16 -k RTR
h -t 24.020178725 -s 3 -d -1 -p message -e 44 -c 2 -a 0 -i 16 -k RTR
+ -t 24.020573725 -s 3 -d -1 -p message -e 102 -c 2 -a 0 -i 16 -k MAC 
- -t 24.020573725 -s 3 -d -1 -p message -e 102 -c 2 -a 0 -i 16 -k MAC
h -t 24.020573725 -s 3 -d -1 -p message -e 102 -c 2 -a 0 -i 16 -k MAC
r -t 24.021389913 -s 1 -d -1 -p message -e 44 -c 2 -a 0 -i 16 -k MAC
r -t 24.021414913 -s 1 -d -1 -p message -e 44 -c 2 -a 0 -i 16 -k RTR
+ -t 24.025761349 -s 4 -d -1 -p message -e 44 -c 2 -a 0 -i 18 -k RTR 
- -t 24.025761349 -s 4 -d -1 -p message -e 44 -c 2 -a 0 -i 18 -k RTR
h -t 24.025761349 -s 4 -d -1 -p message -e 44 -c 2 -a 0 -i 18 -k RTR
+ -t 24.025773953 -s 2 -d -1 -p message -e 44 -c 2 -a 0 -i 17 -k RTR 
- -t 24.025773953 -s 2 -d -1 -p message -e 44 -c 2 -a 0 -i 17 -k RTR
h -t 24.025773953 -s 2 -d -1 -p message -e 44 -c 2 -a 0 -i 17 -k RTR
+ -t 24.025948953 -s 2 -d -1 -p message -e 102 -c 2 -a 0 -i 17 -k MAC 
- -t 24.025948953 -s 2 -d -1 -p message -e 102 -c 2 -a 0 -i 17 -k MAC
h -t 24.025948953 -s 2 -d -1 -p message -e 102 -c 2 -a 0 -i 17 -k MAC
r -t 24.026765142 -s 1 -d -1 -p message -e 44 -c 2 -a 0 -i 17 -k MAC
r -t 24.026790142 -s 1 -d -1 -p message -e 44 -c 2 -a 0 -i 17 -k RTR
+ -t 24.027339194 -s 4 -d -1 -p message -e 102 -c 2 -a 0 -i 18 -k MAC 
- -t 24.027339194 -s 4 -d -1 -p message -e 102 -c 2 -a 0 -i 18 -k MAC
h -t 24.027339194 -s 4 -d -1 -p message -e 102 -c 2 -a 0 -i 18 -k MAC
r -t 24.028155398 -s 1 -d -1 -p message -e 44 -c 2 -a 0 -i 18 -k MAC
r -t 24.028180398 -s 1 -d -1 -p message -e 44 -c 2 -a 0 -i 18 -k RTR
+ -t 24.629990493 -s 3 -d -1 -p message -e 56 -c 2 -a 0 -i 19 -k RTR 
- -t 24.629990493 -s 3 -d -1 -p message -e 56 -c 2 -a 0 -i 19 -k RTR
h -t 24.629990493 -s 3 -d -1 -p message -e 56 -c 2 -a 0 -i 19 -k RTR
+ -t 24.630505493 -s 3 -d -1 -p message -e 114 -c 2 -a 0 -i 19 -k MAC 
- -t 24.630505493 -s 3 -d -1 -p message -e 114 -c 2 -a 0 -i 19 -k MAC
h -t 24.630505493 -s 3 -d -1 -p message -e 114 -c 2 -a 0 -i 19 -k MAC
r -t 24.631417681 -s 1 -d -1 -p message -e 56 -c 2 -a 0 -i 19 -k MAC
r -t 24.631442681 -s 1 -d -1 -p message -e 56 -c 2 -a 0 -i 19 -k RTR
+ -t 25.011873346 -s 0 -d -1 -p message -e 56 -c 2 -a 0 -i 20 -k RTR 
- -t 25.011873346 -s 0 -d -1 -p message -e 56 -c 2 -a 0 -i 20 -k RTR
h -t 25.011873346 -s 0 -d -1 -p message -e 56 -c 2 -a 0 -i 20 -k RTR
+ -t 25.012088346 -s 0 -d -1 -p message -e 114 -c 2 -a 0 -i 20 -k MAC 
- -t 25.012088346 -s 0 -d -1 -p message -e 114 -c 2 -a 0 -i 20 -k MAC
h -t 25.012088346 -s 0 -d -1 -p message -e 114 -c 2 -a 0 -i 20 -k MAC
r -t 25.013000553 -s 1 -d -1 -p message -e 56 -c 2 -a 0 -i 20 -k MAC
r -t 25.013025553 -s 1 -d -1 -p message -e 56 -c 2 -a 0 -i 20 -k RTR
+ -t 25.017548372 -s 4 -d -1 -p message -e 56 -c 2 -a 0 -i 22 -k RTR 
- -t 25.017548372 -s 4 -d -1 -p message -e 56 -c 2 -a 0 -i 22 -k RTR
h -t 25.017548372 -s 4 -d -1 -p message -e 56 -c 2 -a 0 -i 22 -k RTR
+ -t 25.018203372 -s 4 -d -1 -p message -e 114 -c 2 -a 0 -i 22 -k MAC 
- -t 25.018203372 -s 4 -d -1 -p message -e 114 -c 2 -a 0 -i 22 -k MAC
h -t 25.018203372 -s 4 -d -1 -p message -e 114 -c 2 -a 0 -i 22 -k MAC
r -t 25.019115576 -s 1 -d -1 -p message -e 56 -c 2 -a 0 -i 22 -k MAC
r -t 25.019140576 -s 1 -d -1 -p message -e 56 -c 2 -a 0 -i 22 -k RTR
+ -t 25.025263791 -s 2 -d -1 -p message -e 56 -c 2 -a 0 -i 21 -k RTR 
- -t 25.025263791 -s 2 -d -1 -p message -e 56 -c 2 -a 0 -i 21 -k RTR
h -t 25.025263791 -s 2 -d -1 -p message -e 56 -c 2 -a 0 -i 21 -k RTR
+ -t 25.025438791 -s 2 -d -1 -p message -e 114 -c 2 -a 0 -i 21 -k MAC 
- -t 25.025438791 -s 2 -d -1 -p message -e 114 -c 2 -a 0 -i 21 -k MAC
h -t 25.025438791 -s 2 -d -1 -p message -e 114 -c 2 -a 0 -i 21 -k MAC
r -t 25.026350980 -s 1 -d -1 -p message -e 56 -c 2 -a 0 -i 21 -k MAC
r -t 25.026375980 -s 1 -d -1 -p message -e 56 -c 2 -a 0 -i 21 -k RTR
+ -t 25.635365943 -s 3 -d -1 -p message -e 44 -c 2 -a 0 -i 23 -k RTR 
- -t 25.635365943 -s 3 -d -1 -p message -e 44 -c 2 -a 0 -i 23 -k RTR
h -t 25.635365943 -s 3 -d -1 -p message -e 44 -c 2 -a 0 -i 23 -k RTR
+ -t 25.635560943 -s 3 -d -1 -p message -e 102 -c 2 -a 0 -i 23 -k MAC 
- -t 25.635560943 -s 3 -d -1 -p message -e 102 -c 2 -a 0 -i 23 -k MAC
h -t 25.635560943 -s 3 -d -1 -p message -e 102 -c 2 -a 0 -i 23 -k MAC
r -t 25.636377131 -s 1 -d -1 -p message -e 44 -c 2 -a 0 -i 23 -k MAC
r -t 25.636402131 -s 1 -d -1 -p message -e 44 -c 2 -a 0 -i 23 -k RTR
+ -t 26.018526330 -s 0 -d -1 -p message -e 56 -c 2 -a 0 -i 24 -k RTR 
- -t 26.018526330 -s 0 -d -1 -p message -e 56 -c 2 -a 0 -i 24 -k RTR
h -t 26.018526330 -s 0 -d -1 -p message -e 56 -c 2 -a 0 -i 24 -k RTR
+ -t 26.019141330 -s 0 -d -1 -p message -e 114 -c 2 -a 0 -i 24 -k MAC 
- -t 26.019141330 -s 0 -d -1 -p message -e 114 -c 2 -a 0 -i 24 -k MAC
h -t 26.019141330 -s 0 -d -1 -p message -e 114 -c 2 -a 0 -i 24 -k MAC
r -t 26.020053537 -s 1 -d -1 -p message -e 56 -c 2 -a 0 -i 24 -k MAC
r -t 26.020078537 -s 1 -d -1 -p message -e 56 -c 2 -a 0 -i 24 -k RTR
+ -t 26.176085705 -s 2 -d -1 -p message -e 68 -c 2 -a 0 -i 25 -k RTR 
- -t 26.176085705 -s 2 -d -1 -p message -e 68 -c 2 -a 0 -i 25 -k RTR
h -t 26.176085705 -s 2 -d -1 -p message -e 68 -c 2 -a 0 -i 25 -k RTR
+ -t 26.176500705 -s 2 -d -1 -p message -e 126 -c 2 -a 0 -i 25 -k MAC 
- -t 26.176500705 -s 2 -d -1 -p message -e 126 -c 2 -a 0 -i 25 -k MAC
h -t 26.176500705 -s 2 -d -1 -p message -e 126 -c 2 -a 0 -i 25 -k MAC
r -t 26.177508894 -s 1 -d -1 -p message -e 68 -c 2 -a 0 -i 25 -k MAC
r -t 26.177533894 -s 1 -d -1 -p message -e 68 -c 2 -a 0 -i 25 -k RTR
+ -t 26.573823855 -s 0 -d -1 -p message -e 68 -c 2 -a 0 -i 26 -k RTR 
- -t 26.573823855 -s 0 -d -1 -p message -e 68 -c 2 -a 0 -i 26 -k RTR
h -t 26.573823855 -s 0 -d -1 -p message -e 68 -c 2 -a 0 -i 26 -k RTR
+ -t 26.573898855 -s 0 -d -1 -p message -e 126 -c 2 -a 0 -i 26 -k MAC 
- -t 26.573898855 -s 0 -d -1 -p message -e 126 -c 2 -a 0 -i 26 -k MAC
h -t 26.573898855 -s 0 -d -1 -p message -e 126 -c 2 -a 0 -i 26 -k MAC
r -t 26.574907061 -s 1 -d -1 -p message -e 68 -c 2 -a 0 -i 26 -k MAC
r -t 26.574932061 -s 1 -d -1 -p message -e 68 -c 2 -a 0 -i 26 -k RTR
+ -t 27.026637997 -s 4 -d -1 -p message -e 68 -c 2 -a 0 -i 27 -k RTR 
- -t 27.026637997 -s 4 -d -1 -p message -e 68 -c 2 -a 0 -i 27 -k RTR
h -t 27.026637997 -s 4 -d -1 -p message -e 68 -c 2 -a 0 -i 27 -k RTR
+ -t 27.027172997 -s 4 -d -1 -p message -e 126 -c 2 -a 0 -i 27 -k MAC 
- -t 27.027172997 -s 4 -d -1 -p message -e 126 -c 2 -a 0 -i 27 -k MAC
h -t 27.027172997 -s 4 -d -1 -p message -e 126 -c 2 -a 0 -i 27 -k MAC
r -t 27.028181201 -s 1 -d -1 -p message -e 68 -c 2 -a 0 -i 27 -k MAC
r -t 27.028206201 -s 1 -d -1 -p message -e 68 -c 2 -a 0 -i 27 -k RTR
+ -t 27.259339838 -s 1 -d -1 -p message -e 32 -c 2 -a 0 -i 28 -k RTR 
- -t 27.259339838 -s 1 -d -1 -p message -e 32 -c 2 -a 0 -i 28 -k RTR
h -t 27.259339838 -s 1 -d -1 -p message -e 32 -c 2 -a 0 -i 28 -k RTR
+ -t 27.259774838 -s 1 -d -1 -p message -e 90 -c 2 -a 0 -i 28 -k MAC 
- -t 27.259774838 -s 1 -d -1 -p message -e 90 -c 2 -a 0 -i 28 -k MAC
h -t 27.259774838 -s 1 -d -1 -p message -e 90 -c 2 -a 0 -i 28 -k MAC
r -t 27.260495025 -s 3 -d -1 -p message -e 32 -c 2 -a 0 -i 28 -k MAC
r -t 27.260495027 -s 2 -d -1 -p message -e 32 -c 2 -a 0 -i 28 -k MAC
r -t 27.260495042 -s 4 -d -1 -p message -e 32 -c 2 -a 0 -i 28 -k MAC
r -t 27.260495044 -s 0 -d -1 -p message -e 32 -c 2 -a 0 -i 28 -k MAC
r -t 27.260520025 -s 3 -d -1 -p message -e 32 -c 2 -a 0 -i 28 -k RTR
r -t 27.260520027 -s 2 -d -1 -p message -e 32 -c 2 -a 0 -i 28 -k RTR
r -t 27.260520042 -s 4 -d -1 -p message -e 32 -c 2 -a 0 -i 28 -k RTR
r -t 27.260520044 -s 0 -d -1 -p message -e 32 -c 2 -a 0 -i 28 -k RTR
+ -t 37.979907455 -s 0 -d -1 -p message -e 68 -c 2 -a 0 -i 29 -k RTR 
- -t 37.979907455 -s 0 -d -1 -p message -e 68 -c 2 -a 0 -i 29 -k RTR
h -t 37.979907455 -s 0 -d -1 -p message -e 68 -c 2 -a 0 -i 29 -k RTR
+ -t 37.980502455 -s 0 -d -1 -p message -e 126 -c 2 -a 0 -i 29 -k MAC 
- -t 37.980502455 -s 0 -d -1 -p message -e 126 -c 2 -a 0 -i 29 -k MAC
h -t 37.980502455 -s 0 -d -1 -p message -e 126 -c 2 -a 0 -i 29 -k MAC
r -t 37.981510661 -s 1 -d -1 -p message -e 68 -c 2 -a 0 -i 29 -k MAC
r -t 37.981535661 -s 1 -d -1 -p message -e 68 -c 2 -a 0 -i 29 -k RTR
+ -t 38.422148034 -s 2 -d -1 -p message -e 68 -c 2 -a 0 -i 30 -k RTR 
- -t 38.422148034 -s 2 -d -1 -p message -e 68 -c 2 -a 0 -i 30 -k RTR
h -t 38.422148034 -s 2 -d -1 -p message -e 68 -c 2 -a 0 -i 30 -k RTR
+ -t 38.422563034 -s 2 -d -1 -p message -e 126 -c 2 -a 0 -i 30 -k MAC 
- -t 38.422563034 -s 2 -d -1 -p message -e 126 -c 2 -a 0 -i 30 -k MAC
h -t 38.422563034 -s 2 -d -1 -p message -e 126 -c 2 -a 0 -i 30 -k MAC
r -t 38.423571223 -s 1 -d -1 -p message -e 68 -c 2 -a 0 -i 30 -k MAC
r -t 38.423596223 -s 1 -d -1 -p message -e 68 -c 2 -a 0 -i 30 -k RTR
+ -t 38.639392026 -s 3 -d -1 -p message -e 80 -c 2 -a 0 -i 31 -k RTR 
- -t 38.639392026 -s 3 -d -1 -p message -e 80 -c 2 -a 0 -i 31 -k RTR
h -t 38.639392026 -s 3 -d -1 -p message -e 80 -c 2 -a 0 -i 31 -k RTR
+ -t 38.639887026 -s 3 -d -1 -p message -e 138 -c 2 -a 0 -i 31 -k MAC 
- -t 38.639887026 -s 3 -d -1 -p message -e 138 -c 2 -a 0 -i 31 -k MAC
h -t 38.639887026 -s 3 -d -1 -p message -e 138 -c 2 -a 0 -i 31 -k MAC
r -t 38.640991214 -s 1 -d -1 -p message -e 80 -c 2 -a 0 -i 31 -k MAC
r -t 38.641016214 -s 1 -d -1 -p message -e 80 -c 2 -a 0 -i 31 -k RTR
+ -t 40.070950439 -s 1 -d -1 -p message -e 44 -c 2 -a 0 -i 32 -k RTR 
- -t 40.070950439 -s 1 -d -1 -p message -e 44 -c 2 -a 0 -i 32 -k RTR
h -t 40.070950439 -s 1 -d -1 -p message -e 44 -c 2 -a 0 -i 32 -k RTR
+ -t 40.071505439 -s 1 -d -1 -p message -e 102 -c 2 -a 0 -i 32 -k MAC 
- -t 40.071505439 -s 1 -d -1 -p message -e 102 -c 2 -a 0 -i 32 -k MAC
h -t 40.071505439 -s 1 -d -1 -p message -e 102 -c 2 -a 0 -i 32 -k MAC
r -t 40.072321626 -s 3 -d -1 -p message -e 44 -c 2 -a 0 -i 32 -k MAC
r -t 40.072321628 -s 2 -d -1 -p message -e 44 -c 2 -a 0 -i 32 -k MAC
r -t 40.072321642 -s 4 -d -1 -p message -e 44 -c 2 -a 0 -i 32 -k MAC
r -t 40.072321645 -s 0 -d -1 -p message -e 44 -c 2 -a 0 -i 32 -k MAC
r -t 40.072346626 -s 3 -d -1 -p message -e 44 -c 2 -a 0 -i 32 -k RTR
r -t 40.072346628 -s 2 -d -1 -p message -e 44 -c 2 -a 0 -i 32 -k RTR
r -t 40.072346642 -s 4 -d -1 -p message -e 44 -c 2 -a 0 -i 32 -k RTR
r -t 40.072346645 -s 0 -d -1 -p message -e 44 -c 2 -a 0 -i 32 -k RTR
+ -t 41.350944057 -s 4 -d -1 -p message -e 56 -c 2 -a 0 -i 33 -k RTR 
- -t 41.350944057 -s 4 -d -1 -p message -e 56 -c 2 -a 0 -i 33 -k RTR
h -t 41.350944057 -s 4 -d -1 -p message -e 56 -c 2 -a 0 -i 33 -k RTR
+ -t 41.351599057 -s 4 -d -1 -p message -e 114 -c 2 -a 0 -i 33 -k MAC 
- -t 41.351599057 -s 4 -d -1 -p message -e 114 -c 2 -a 0 -i 33 -k MAC
h -t 41.351599057 -s 4 -d -1 -p message -e 114 -c 2 -a 0 -i 33 -k MAC
r -t 41.352511261 -s 1 -d -1 -p message -e 56 -c 2 -a 0 -i 33 -k MAC
r -t 41.352536261 -s 1 -d -1 -p message -e 56 -c 2 -a 0 -i 33 -k RTR
+ -t 50.000000000 -s 0 -d -1 -p cbr -e 50 -c 2 -a 0 -i 34 -k AGT 
- -t 50.000000000 -s 0 -d -1 -p cbr -e 50 -c 2 -a 0 -i 34 -k AGT
h -t 50.000000000 -s 0 -d -1 -p cbr -e 50 -c 2 -a 0 -i 34 -k AGT
+ -t 50.000000000 -s 0 -d 1 -p cbr -e 70 -c 2 -a 0 -i 34 -k RTR 
- -t 50.000000000 -s 0 -d 1 -p cbr -e 70 -c 2 -a 0 -i 34 -k RTR
h -t 50.000000000 -s 0 -d 1 -p cbr -e 70 -c 2 -a 0 -i 34 -k RTR
+ -t 50.000000000 -s 3 -d -1 -p cbr -e 100 -c 2 -a 0 -i 35 -k AGT 
- -t 50.000000000 -s 3 -d -1 -p cbr -e 100 -c 2 -a 0 -i 35 -k AGT
h -t 50.000000000 -s 3 -d -1 -p cbr -e 100 -c 2 -a 0 -i 35 -k AGT
+ -t 50.000000000 -s 3 -d 1 -p cbr -e 120 -c 2 -a 0 -i 35 -k RTR 
- -t 50.000000000 -s 3 -d 1 -p cbr -e 120 -c 2 -a 0 -i 35 -k RTR
h -t 50.000000000 -s 3 -d 1 -p cbr -e 120 -c 2 -a 0 -i 35 -k RTR
+ -t 50.000295000 -s 3 -d -1 -p ARP -e 86 -c 2 -a 0 -i 0 -k MAC 
- -t 50.000295000 -s 3 -d -1 -p ARP -e 86 -c 2 -a 0 -i 0 -k MAC
h -t 50.000295000 -s 3 -d -1 -p ARP -e 86 -c 2 -a 0 -i 0 -k MAC
r -t 50.000983188 -s 1 -d -1 -p ARP -e 28 -c 2 -a 0 -i 0 -k MAC
+ -t 50.001478188 -s 1 -d -1 -p RTS -e 44 -c 2 -a 0 -i 0 -k MAC 
- -t 50.001478188 -s 1 -d -1 -p RTS -e 44 -c 2 -a 0 -i 0 -k MAC
h -t 50.001478188 -s 1 -d -1 -p RTS -e 44 -c 2 -a 0 -i 0 -k MAC
r -t 50.001830375 -s 3 -d -1 -p RTS -e 44 -c 2 -a 0 -i 0 -k MAC
+ -t 50.001840375 -s 3 -d -1 -p CTS -e 38 -c 2 -a 0 -i 0 -k MAC 
- -t 50.001840375 -s 3 -d -1 -p CTS -e 38 -c 2 -a 0 -i 0 -k MAC
h -t 50.001840375 -s 3 -d -1 -p CTS -e 38 -c 2 -a 0 -i 0 -k MAC
r -t 50.002144563 -s 1 -d -1 -p CTS -e 38 -c 2 -a 0 -i 0 -k MAC
+ -t 50.002154563 -s 1 -d -1 -p ARP -e 86 -c 2 -a 0 -i 0 -k MAC 
- -t 50.002154563 -s 1 -d -1 -p ARP -e 86 -c 2 -a 0 -i 0 -k MAC
h -t 50.002154563 -s 1 -d -1 -p ARP -e 86 -c 2 -a 0 -i 0 -k MAC
r -t 50.002842750 -s 3 -d -1 -p ARP -e 28 -c 2 -a 0 -i 0 -k MAC
+ -t 50.002852750 -s 3 -d -1 -p ACK -e 38 -c 2 -a 0 -i 0 -k MAC 
- -t 50.002852750 -s 3 -d -1 -p ACK -e 38 -c 2 -a 0 -i 0 -k MAC
h -t 50.002852750 -s 3 -d -1 -p ACK -e 38 -c 2 -a 0 -i 0 -k MAC
r -t 50.003156938 -s 1 -d -1 -p ACK -e 38 -c 2 -a 0 -i 0 -k MAC
+ -t 50.003326750 -s 3 -d -1 -p RTS -e 44 -c 2 -a 0 -i 0 -k MAC 
- -t 50.003326750 -s 3 -d -1 -p RTS -e 44 -c 2 -a 0 -i 0 -k MAC
h -t 50.003326750 -s 3 -d -1 -p RTS -e 44 -c 2 -a 0 -i 0 -k MAC
r -t 50.003678938 -s 1 -d -1 -p RTS -e 44 -c 2 -a 0 -i 0 -k MAC
+ -t 50.003688938 -s 1 -d -1 -p CTS -e 38 -c 2 -a 0 -i 0 -k MAC 
- -t 50.003688938 -s 1 -d -1 -p CTS -e 38 -c 2 -a 0 -i 0 -k MAC
h -t 50.003688938 -s 1 -d -1 -p CTS -e 38 -c 2 -a 0 -i 0 -k MAC
r -t 50.003993125 -s 3 -d -1 -p CTS -e 38 -c 2 -a 0 -i 0 -k MAC
+ -t 50.004003125 -s 3 -d 1 -p cbr -e 178 -c 2 -a 0 -i 35 -k MAC 
- -t 50.004003125 -s 3 -d 1 -p cbr -e 178 -c 2 -a 0 -i 35 -k MAC
h -t 50.004003125 -s 3 -d 1 -p cbr -e 178 -c 2 -a 0 -i 35 -k MAC
r -t 50.005427313 -s 1 -d 1 -p cbr -e 120 -c 2 -a 0 -i 35 -k MAC
+ -t 50.005437313 -s 1 -d -1 -p ACK -e 38 -c 2 -a 0 -i 0 -k MAC 
- -t 50.005437313 -s 1 -d -1 -p ACK -e 38 -c 2 -a 0 -i 0 -k MAC
h -t 50.005437313 -s 1 -d -1 -p ACK -e 38 -c 2 -a 0 -i 0 -k MAC
+ -t 50.005452313 -s 1 -d 4 -p cbr -e 120 -c 2 -a 0 -i 35 -k RTR 
- -t 50.005452313 -s 1 -d 4 -p cbr -e 120 -c 2 -a 0 -i 35 -k RTR
h -t 50.005452313 -s 1 -d 4 -p cbr -e 120 -c 2 -a 0 -i 35 -k RTR
r -t 50.005741500 -s 3 -d -1 -p ACK -e 38 -c 2 -a 0 -i 0 -k MAC
+ -t 50.005831313 -s 1 -d -1 -p ARP -e 86 -c 2 -a 0 -i 0 -k MAC 
- -t 50.005831313 -s 1 -d -1 -p ARP -e 86 -c 2 -a 0 -i 0 -k MAC
h -t 50.005831313 -s 1 -d -1 -p ARP -e 86 -c 2 -a 0 -i 0 -k MAC
r -t 50.006519500 -s 3 -d -1 -p ARP -e 28 -c 2 -a 0 -i 0 -k MAC
r -t 50.006519501 -s 2 -d -1 -p ARP -e 28 -c 2 -a 0 -i 0 -k MAC
r -t 50.006519516 -s 4 -d -1 -p ARP -e 28 -c 2 -a 0 -i 0 -k MAC
r -t 50.006519519 -s 0 -d -1 -p ARP -e 28 -c 2 -a 0 -i 0 -k MAC
+ -t 50.006729519 -s 0 -d -1 -p ARP -e 86 -c 2 -a 0 -i 0 -k MAC 
- -t 50.006729519 -s 0 -d -1 -p ARP -e 86 -c 2 -a 0 -i 0 -k MAC
h -t 50.006729519 -s 0 -d -1 -p ARP -e 86 -c 2 -a 0 -i 0 -k MAC
r -t 50.007417726 -s 1 -d -1 -p ARP -e 28 -c 2 -a 0 -i 0 -k MAC
+ -t 50.007667726 -s 1 -d -1 -p RTS -e 44 -c 2 -a 0 -i 0 -k MAC 
- -t 50.007667726 -s 1 -d -1 -p RTS -e 44 -c 2 -a 0 -i 0 -k MAC
h -t 50.007667726 -s 1 -d -1 -p RTS -e 44 -c 2 -a 0 -i 0 -k MAC
r -t 50.008019932 -s 0 -d -1 -p RTS -e 44 -c 2 -a 0 -i 0 -k MAC
+ -t 50.008029932 -s 0 -d -1 -p CTS -e 38 -c 2 -a 0 -i 0 -k MAC 
- -t 50.008029932 -s 0 -d -1 -p CTS -e 38 -c 2 -a 0 -i 0 -k MAC
h -t 50.008029932 -s 0 -d -1 -p CTS -e 38 -c 2 -a 0 -i 0 -k MAC
r -t 50.008334139 -s 1 -d -1 -p CTS -e 38 -c 2 -a 0 -i 0 -k MAC
+ -t 50.008344139 -s 1 -d -1 -p ARP -e 86 -c 2 -a 0 -i 0 -k MAC 
- -t 50.008344139 -s 1 -d -1 -p ARP -e 86 -c 2 -a 0 -i 0 -k MAC
h -t 50.008344139 -s 1 -d -1 -p ARP -e 86 -c 2 -a 0 -i 0 -k MAC
r -t 50.009032345 -s 0 -d -1 -p ARP -e 28 -c 2 -a 0 -i 0 -k MAC
+ -t 50.009042345 -s 0 -d -1 -p ACK -e 38 -c 2 -a 0 -i 0 -k MAC 
- -t 50.009042345 -s 0 -d -1 -p ACK -e 38 -c 2 -a 0 -i 0 -k MAC
h -t 50.009042345 -s 0 -d -1 -p ACK -e 38 -c 2 -a 0 -i 0 -k MAC
r -t 50.009346552 -s 1 -d -1 -p ACK -e 38 -c 2 -a 0 -i 0 -k MAC
+ -t 50.009796345 -s 0 -d -1 -p RTS -e 44 -c 2 -a 0 -i 0 -k MAC 
- -t 50.009796345 -s 0 -d -1 -p RTS -e 44 -c 2 -a 0 -i 0 -k MAC
h -t 50.009796345 -s 0 -d -1 -p RTS -e 44 -c 2 -a 0 -i 0 -k MAC
r -t 50.010148552 -s 1 -d -1 -p RTS -e 44 -c 2 -a 0 -i 0 -k MAC
+ -t 50.010158552 -s 1 -d -1 -p CTS -e 38 -c 2 -a 0 -i 0 -k MAC 
- -t 50.010158552 -s 1 -d -1 -p CTS -e 38 -c 2 -a 0 -i 0 -k MAC
h -t 50.010158552 -s 1 -d -1 -p CTS -e 38 -c 2 -a 0 -i 0 -k MAC
r -t 50.010462758 -s 0 -d -1 -p CTS -e 38 -c 2 -a 0 -i 0 -k MAC
+ -t 50.010472758 -s 0 -d 1 -p cbr -e 128 -c 2 -a 0 -i 34 -k MAC 
- -t 50.010472758 -s 0 -d 1 -p cbr -e 128 -c 2 -a 0 -i 34 -k MAC
h -t 50.010472758 -s 0 -d 1 -p cbr -e 128 -c 2 -a 0 -i 34 -k MAC
r -t 50.011496965 -s 1 -d 1 -p cbr -e 70 -c 2 -a 0 -i 34 -k MAC
+ -t 50.011506965 -s 1 -d -1 -p ACK -e 38 -c 2 -a 0 -i 0 -k MAC 
- -t 50.011506965 -s 1 -d -1 -p ACK -e 38 -c 2 -a 0 -i 0 -k MAC
h -t 50.011506965 -s 1 -d -1 -p ACK -e 38 -c 2 -a 0 -i 0 -k MAC
+ -t 50.011521965 -s 1 -d 2 -p cbr -e 70 -c 2 -a 0 -i 34 -k RTR 
- -t 50.011521965 -s 1 -d 2 -p cbr -e 70 -c 2 -a 0 -i 34 -k RTR
h -t 50.011521965 -s 1 -d 2 -p cbr -e 70 -c 2 -a 0 -i 34 -k RTR
r -t 50.011811171 -s 0 -d -1 -p ACK -e 38 -c 2 -a 0 -i 0 -k MAC
+ -t 50.011900965 -s 1 -d -1 -p ARP -e 86 -c 2 -a 0 -i 0 -k MAC 
- -t 50.011900965 -s 1 -d -1 -p ARP -e 86 -c 2 -a 0 -i 0 -k MAC
h -t 50.011900965 -s 1 -d -1 -p ARP -e 86 -c 2 -a 0 -i 0 -k MAC
r -t 50.012589152 -s 3 -d -1 -p ARP -e 28 -c 2 -a 0 -i 0 -k MAC
r -t 50.012589154 -s 2 -d -1 -p ARP -e 28 -c 2 -a 0 -i 0 -k MAC
r -t 50.012589169 -s 4 -d -1 -p ARP -e 28 -c 2 -a 0 -i 0 -k MAC
r -t 50.012589171 -s 0 -d -1 -p ARP -e 28 -c 2 -a 0 -i 0 -k MAC
+ -t 50.012999169 -s 4 -d -1 -p RTS -e 44 -c 2 -a 0 -i 0 -k MAC 
- -t 50.012999169 -s 4 -d -1 -p RTS -e 44 -c 2 -a 0 -i 0 -k MAC
h -t 50.012999169 -s 4 -d -1 -p RTS -e 44 -c 2 -a 0 -i 0 -k MAC
r -t 50.013351372 -s 1 -d -1 -p RTS -e 44 -c 2 -a 0 -i 0 -k MAC
+ -t 50.013361372 -s 1 -d -1 -p CTS -e 38 -c 2 -a 0 -i 0 -k MAC 
- -t 50.013361372 -s 1 -d -1 -p CTS -e 38 -c 2 -a 0 -i 0 -k MAC
h -t 50.013361372 -s 1 -d -1 -p CTS -e 38 -c 2 -a 0 -i 0 -k MAC
r -t 50.013665576 -s 4 -d -1 -p CTS -e 38 -c 2 -a 0 -i 0 -k MAC
+ -t 50.013675576 -s 4 -d -1 -p ARP -e 86 -c 2 -a 0 -i 0 -k MAC 
- -t 50.013675576 -s 4 -d -1 -p ARP -e 86 -c 2 -a 0 -i 0 -k MAC
h -t 50.013675576 -s 4 -d -1 -p ARP -e 86 -c 2 -a 0 -i 0 -k MAC
r -t 50.014363780 -s 1 -d -1 -p ARP -e 28 -c 2 -a 0 -i 0 -k MAC
+ -t 50.014373780 -s 1 -d -1 -p ACK -e 38 -c 2 -a 0 -i 0 -k MAC 
- -t 50.014373780 -s 1 -d -1 -p ACK -e 38 -c 2 -a 0 -i 0 -k MAC
h -t 50.014373780 -s 1 -d -1 -p ACK -e 38 -c 2 -a 0 -i 0 -k MAC
r -t 50.014677983 -s 4 -d -1 -p ACK -e 38 -c 2 -a 0 -i 0 -k MAC
+ -t 50.014807780 -s 1 -d -1 -p RTS -e 44 -c 2 -a 0 -i 0 -k MAC 
- -t 50.014807780 -s 1 -d -1 -p RTS -e 44 -c 2 -a 0 -i 0 -k MAC
h -t 50.014807780 -s 1 -d -1 -p RTS -e 44 -c 2 -a 0 -i 0 -k MAC
r -t 50.015159983 -s 4 -d -1 -p RTS -e 44 -c 2 -a 0 -i 0 -k MAC
+ -t 50.015169983 -s 4 -d -1 -p CTS -e 38 -c 2 -a 0 -i 0 -k MAC 
- -t 50.015169983 -s 4 -d -1 -p CTS -e 38 -c 2 -a 0 -i 0 -k MAC
h -t 50.015169983 -s 4 -d -1 -p CTS -e 38 -c 2 -a 0 -i 0 -k MAC
r -t 50.015474187 -s 1 -d -1 -p CTS -e 38 -c 2 -a 0 -i 0 -k MAC
+ -t 50.015484187 -s 1 -d 4 -p cbr -e 178 -c 2 -a 0 -i 35 -k MAC 
- -t 50.015484187 -s 1 -d 4 -p cbr -e 178 -c 2 -a 0 -i 35 -k MAC
h -t 50.015484187 -s 1 -d 4 -p cbr -e 178 -c 2 -a 0 -i 35 -k MAC
r -t 50.016908391 -s 4 -d 4 -p cbr -e 120 -c 2 -a 0 -i 35 -k MAC
+ -t 50.016918391 -s 4 -d -1 -p ACK -e 38 -c 2 -a 0 -i 0 -k MAC 
- -t 50.016918391 -s 4 -d -1 -p ACK -e 38 -c 2 -a 0 -i 0 -k MAC
h -t 50.016918391 -s 4 -d -1 -p ACK -e 38 -c 2 -a 0 -i 0 -k MAC
r -t 50.016933391 -s 4 -d 4 -p cbr -e 120 -c 2 -a 0 -i 35 -k AGT
r -t 50.017222595 -s 1 -d -1 -p ACK -e 38 -c 2 -a 0 -i 0 -k MAC
+ -t 50.017716632 -s 2 -d -1 -p RTS -e 44 -c 2 -a 0 -i 0 -k MAC 
- -t 50.017716632 -s 2 -d -1 -p RTS -e 44 -c 2 -a 0 -i 0 -k MAC
h -t 50.017716632 -s 2 -d -1 -p RTS -e 44 -c 2 -a 0 -i 0 -k MAC
r -t 50.018068821 -s 1 -d -1 -p RTS -e 44 -c 2 -a 0 -i 0 -k MAC
+ -t 50.018078821 -s 1 -d -1 -p CTS -e 38 -c 2 -a 0 -i 0 -k MAC 
- -t 50.018078821 -s 1 -d -1 -p CTS -e 38 -c 2 -a 0 -i 0 -k MAC
h -t 50.018078821 -s 1 -d -1 -p CTS -e 38 -c 2 -a 0 -i 0 -k MAC
r -t 50.018383010 -s 2 -d -1 -p CTS -e 38 -c 2 -a 0 -i 0 -k MAC
+ -t 50.018393010 -s 2 -d -1 -p ARP -e 86 -c 2 -a 0 -i 0 -k MAC 
- -t 50.018393010 -s 2 -d -1 -p ARP -e 86 -c 2 -a 0 -i 0 -k MAC
h -t 50.018393010 -s 2 -d -1 -p ARP -e 86 -c 2 -a 0 -i 0 -k MAC
r -t 50.019081199 -s 1 -d -1 -p ARP -e 28 -c 2 -a 0 -i 0 -k MAC
+ -t 50.019091199 -s 1 -d -1 -p ACK -e 38 -c 2 -a 0 -i 0 -k MAC 
- -t 50.019091199 -s 1 -d -1 -p ACK -e 38 -c 2 -a 0 -i 0 -k MAC
h -t 50.019091199 -s 1 -d -1 -p ACK -e 38 -c 2 -a 0 -i 0 -k MAC
r -t 50.019395387 -s 2 -d -1 -p ACK -e 38 -c 2 -a 0 -i 0 -k MAC
+ -t 50.019885199 -s 1 -d -1 -p RTS -e 44 -c 2 -a 0 -i 0 -k MAC 
- -t 50.019885199 -s 1 -d -1 -p RTS -e 44 -c 2 -a 0 -i 0 -k MAC
h -t 50.019885199 -s 1 -d -1 -p RTS -e 44 -c 2 -a 0 -i 0 -k MAC
r -t 50.020237387 -s 2 -d -1 -p RTS -e 44 -c 2 -a 0 -i 0 -k MAC
+ -t 50.020247387 -s 2 -d -1 -p CTS -e 38 -c 2 -a 0 -i 0 -k MAC 
- -t 50.020247387 -s 2 -d -1 -p CTS -e 38 -c 2 -a 0 -i 0 -k MAC
h -t 50.020247387 -s 2 -d -1 -p CTS -e 38 -c 2 -a 0 -i 0 -k MAC
r -t 50.020551576 -s 1 -d -1 -p CTS -e 38 -c 2 -a 0 -i 0 -k MAC
+ -t 50.020561576 -s 1 -d 2 -p cbr -e 128 -c 2 -a 0 -i 34 -k MAC 