s 0.008670709 _0_ RTR  --- 0 message 32 [0 0 0 0] [energy 1000.000000 ei 0.000 es 0.000 et 0.000 er 0.000] ------- [0:255 -1:255 32 0] 
s 0.008945709 _0_ MAC  --- 0 message 90 [0 ffffffff 0 800] [energy 1000.000000 ei 0.000 es 0.000 et 0.000 er 0.000] ------- [0:255 -1:255 32 0] 
N -t 0.008946 -n 1 -e 999.990334
N -t 0.008946 -n 3 -e 999.990334
N -t 0.008946 -n 4 -e 999.990334
N -t 0.008946 -n 2 -e 999.990334
r 0.009665916 _1_ MAC  --- 0 message 32 [0 ffffffff 0 800] [energy 999.990334 ei 0.009 es 0.000 et 0.000 er 0.001] ------- [0:255 -1:255 32 0] 
r 0.009690916 _1_ RTR  --- 0 message 32 [0 ffffffff 0 800] [energy 999.990334 ei 0.009 es 0.000 et 0.000 er 0.001] ------- [0:255 -1:255 32 0] 
s 0.028837267 _2_ RTR  --- 1 message 32 [0 0 0 0] [energy 999.990334 ei 0.009 es 0.000 et 0.000 er 0.001] ------- [2:255 -1:255 32 0] 
s 0.029272267 _2_ MAC  --- 1 message 90 [0 ffffffff 2 800] [energy 999.990334 ei 0.009 es 0.000 et 0.000 er 0.001] ------- [2:255 -1:255 32 0] 
N -t 0.029272 -n 1 -e 999.970008
N -t 0.029273 -n 4 -e 999.970007
N -t 0.029273 -n 3 -e 999.970007
N -t 0.029273 -n 0 -e 999.970007
r 0.029992456 _1_ MAC  --- 1 message 32 [0 ffffffff 2 800] [energy 999.970008 ei 0.029 es 0.000 et 0.000 er 0.001] ------- [2:255 -1:255 32 0] 
r 0.030017456 _1_ RTR  --- 1 message 32 [0 ffffffff 2 800] [energy 999.970008 ei 0.029 es 0.000 et 0.000 er 0.001] ------- [2:255 -1:255 32 0] 
s 0.179732753 _3_ RTR  --- 2 message 32 [0 0 0 0] [energy 999.970007 ei 0.029 es 0.000 et 0.000 er 0.001] ------- [3:255 -1:255 32 0] 
s 0.179827753 _3_ MAC  --- 2 message 90 [0 ffffffff 3 800] [energy 999.970007 ei 0.029 es 0.000 et 0.000 er 0.001] ------- [3:255 -1:255 32 0] 
N -t 0.179828 -n 1 -e 999.819452
N -t 0.179828 -n 0 -e 999.819452
N -t 0.179828 -n 2 -e 999.819452
N -t 0.179828 -n 4 -e 999.819452
r 0.180547940 _1_ MAC  --- 2 message 32 [0 ffffffff 3 800] [energy 999.819452 ei 0.178 es 0.000 et 0.000 er 0.002] ------- [3:255 -1:255 32 0] 
r 0.180572940 _1_ RTR  --- 2 message 32 [0 ffffffff 3 800] [energy 999.819452 ei 0.178 es 0.000 et 0.000 er 0.002] ------- [3:255 -1:255 32 0] 
s 0.884518359 _4_ RTR  --- 3 message 32 [0 0 0 0] [energy 999.819452 ei 0.178 es 0.000 et 0.000 er 0.002] ------- [4:255 -1:255 32 0] 
s 0.884633359 _4_ MAC  --- 3 message 90 [0 ffffffff 4 800] [energy 999.819452 ei 0.178 es 0.000 et 0.000 er 0.002] ------- [4:255 -1:255 32 0] 
N -t 0.884634 -n 1 -e 999.114646
N -t 0.884634 -n 2 -e 999.114646
N -t 0.884634 -n 0 -e 999.114646
N -t 0.884634 -n 3 -e 999.114646
r 0.885353562 _1_ MAC  --- 3 message 32 [0 ffffffff 4 800] [energy 999.114646 ei 0.882 es 0.000 et 0.000 er 0.003] ------- [4:255 -1:255 32 0] 
r 0.885378562 _1_ RTR  --- 3 message 32 [0 ffffffff 4 800] [energy 999.114646 ei 0.882 es 0.000 et 0.000 er 0.003] ------- [4:255 -1:255 32 0] 
s 1.115803507 _1_ RTR  --- 4 message 32 [0 0 0 0] [energy 999.114646 ei 0.882 es 0.000 et 0.000 er 0.003] ------- [1:255 -1:255 32 0] 
s 1.116398507 _1_ MAC  --- 4 message 90 [0 ffffffff 1 800] [energy 999.114646 ei 0.882 es 0.000 et 0.000 er 0.003] ------- [1:255 -1:255 32 0] 
N -t 1.116399 -n 3 -e 998.882881
N -t 1.116399 -n 2 -e 998.882881
N -t 1.116399 -n 4 -e 998.882881
N -t 1.116399 -n 0 -e 998.882881
r 1.117118695 _3_ MAC  --- 4 message 32 [0 ffffffff 1 800] [energy 998.882881 ei 1.114 es 0.000 et 0.001 er 0.003] ------- [1:255 -1:255 32 0] 
r 1.117118696 _2_ MAC  --- 4 message 32 [0 ffffffff 1 800] [energy 998.882881 ei 1.114 es 0.000 et 0.001 er 0.003] ------- [1:255 -1:255 32 0] 
r 1.117118711 _4_ MAC  --- 4 message 32 [0 ffffffff 1 800] [energy 998.882881 ei 1.114 es 0.000 et 0.001 er 0.003] ------- [1:255 -1:255 32 0] 
r 1.117118714 _0_ MAC  --- 4 message 32 [0 ffffffff 1 800] [energy 998.882881 ei 1.114 es 0.000 et 0.001 er 0.003] ------- [1:255 -1:255 32 0] 
r 1.117143695 _3_ RTR  --- 4 message 32 [0 ffffffff 1 800] [energy 998.882881 ei 1.114 es 0.000 et 0.001 er 0.003] ------- [1:255 -1:255 32 0] 
r 1.117143696 _2_ RTR  --- 4 message 32 [0 ffffffff 1 800] [energy 998.882881 ei 1.114 es 0.000 et 0.001 er 0.003] ------- [1:255 -1:255 32 0] 
r 1.117143711 _4_ RTR  --- 4 message 32 [0 ffffffff 1 800] [energy 998.882881 ei 1.114 es 0.000 et 0.001 er 0.003] ------- [1:255 -1:255 32 0] 
r 1.117143714 _0_ RTR  --- 4 message 32 [0 ffffffff 1 800] [energy 998.882881 ei 1.114 es 0.000 et 0.001 er 0.003] ------- [1:255 -1:255 32 0] 
M 5.00000 0 (275.21, 185.71, 0.00), (275.21, 185.71), 0.00
M 5.00000 1 (230.81, 228.92, 0.00), (230.81, 228.92), 0.00
M 5.00000 2 (184.74, 261.87, 0.00), (184.74, 261.87), 0.00
M 5.00000 3 (274.41, 264.46, 0.00), (274.41, 264.46), 0.00
M 5.00000 4 (184.10, 189.50, 0.00), (184.10, 189.50), 0.00
s 12.015641189 _1_ RTR  --- 5 message 32 [0 0 0 0] [energy 998.882881 ei 1.114 es 0.000 et 0.001 er 0.003] ------- [1:255 -1:255 32 0] 
s 12.016216189 _1_ MAC  --- 5 message 90 [0 ffffffff 1 800] [energy 998.882881 ei 1.114 es 0.000 et 0.001 er 0.003] ------- [1:255 -1:255 32 0] 
N -t 12.016216 -n 3 -e 987.983064
N -t 12.016216 -n 2 -e 987.983064
N -t 12.016216 -n 4 -e 987.983064
N -t 12.016216 -n 0 -e 987.983064
r 12.016936377 _3_ MAC  --- 5 message 32 [0 ffffffff 1 800] [energy 987.983064 ei 12.013 es 0.000 et 0.001 er 0.004] ------- [1:255 -1:255 32 0] 
r 12.016936378 _2_ MAC  --- 5 message 32 [0 ffffffff 1 800] [energy 987.983064 ei 12.013 es 0.000 et 0.001 er 0.004] ------- [1:255 -1:255 32 0] 
r 12.016936393 _4_ MAC  --- 5 message 32 [0 ffffffff 1 800] [energy 987.983064 ei 12.013 es 0.000 et 0.001 er 0.004] ------- [1:255 -1:255 32 0] 
r 12.016936396 _0_ MAC  --- 5 message 32 [0 ffffffff 1 800] [energy 987.983064 ei 12.013 es 0.000 et 0.001 er 0.004] ------- [1:255 -1:255 32 0] 
r 12.016961377 _3_ RTR  --- 5 message 32 [0 ffffffff 1 800] [energy 987.983064 ei 12.013 es 0.000 et 0.001 er 0.004] ------- [1:255 -1:255 32 0] 
r 12.016961378 _2_ RTR  --- 5 message 32 [0 ffffffff 1 800] [energy 987.983064 ei 12.013 es 0.000 et 0.001 er 0.004] ------- [1:255 -1:255 32 0] 
r 12.016961393 _4_ RTR  --- 5 message 32 [0 ffffffff 1 800] [energy 987.983064 ei 12.013 es 0.000 et 0.001 er 0.004] ------- [1:255 -1:255 32 0] 
r 12.016961396 _0_ RTR  --- 5 message 32 [0 ffffffff 1 800] [energy 987.983064 ei 12.013 es 0.000 et 0.001 er 0.004] ------- [1:255 -1:255 32 0] 
s 12.402841707 _3_ RTR  --- 6 message 32 [0 0 0 0] [energy 987.983064 ei 12.013 es 0.000 et 0.001 er 0.004] ------- [3:255 -1:255 32 0] 
s 12.403076707 _3_ MAC  --- 6 message 90 [0 ffffffff 3 800] [energy 987.983064 ei 12.013 es 0.000 et 0.001 er 0.004] ------- [3:255 -1:255 32 0] 
N -t 12.403077 -n 1 -e 987.596203
N -t 12.403077 -n 0 -e 987.596203
N -t 12.403077 -n 2 -e 987.596203
N -t 12.403077 -n 4 -e 987.596203
r 12.403796895 _1_ MAC  --- 6 message 32 [0 ffffffff 3 800] [energy 987.596203 ei 12.399 es 0.000 et 0.001 er 0.004] ------- [3:255 -1:255 32 0] 
r 12.403821895 _1_ RTR  --- 6 message 32 [0 ffffffff 3 800] [energy 987.596203 ei 12.399 es 0.000 et 0.001 er 0.004] ------- [3:255 -1:255 32 0] 
s 12.433753960 _0_ RTR  --- 7 message 32 [0 0 0 0] [energy 987.596203 ei 12.399 es 0.000 et 0.001 er 0.004] ------- [0:255 -1:255 32 0] 
s 12.433848960 _0_ MAC  --- 7 message 90 [0 ffffffff 0 800] [energy 987.596203 ei 12.399 es 0.000 et 0.001 er 0.004] ------- [0:255 -1:255 32 0] 
N -t 12.433849 -n 1 -e 987.565431
N -t 12.433849 -n 3 -e 987.565431
N -t 12.433849 -n 4 -e 987.565431
N -t 12.433849 -n 2 -e 987.565431
r 12.434569167 _1_ MAC  --- 7 message 32 [0 ffffffff 0 800] [energy 987.565431 ei 12.429 es 0.000 et 0.001 er 0.004] ------- [0:255 -1:255 32 0] 
r 12.434594167 _1_ RTR  --- 7 message 32 [0 ffffffff 0 800] [energy 987.565431 ei 12.429 es 0.000 et 0.001 er 0.004] ------- [0:255 -1:255 32 0] 
s 13.010192250 _1_ RTR  --- 8 message 44 [0 0 0 0] [energy 987.565431 ei 12.429 es 0.000 et 0.001 er 0.004] ------- [1:255 -1:255 32 0] 
s 13.010387250 _1_ MAC  --- 8 message 102 [0 ffffffff 1 800] [energy 987.565431 ei 12.429 es 0.000 et 0.001 er 0.004] ------- [1:255 -1:255 32 0] 
N -t 13.010387 -n 3 -e 986.988797
N -t 13.010387 -n 2 -e 986.988797
N -t 13.010387 -n 4 -e 986.988797
N -t 13.010387 -n 0 -e 986.988797
r 13.011203437 _3_ MAC  --- 8 message 44 [0 ffffffff 1 800] [energy 986.988797 ei 13.005 es 0.000 et 0.001 er 0.005] ------- [1:255 -1:255 32 0] 
r 13.011203438 _2_ MAC  --- 8 message 44 [0 ffffffff 1 800] [energy 986.988797 ei 13.005 es 0.000 et 0.001 er 0.006] ------- [1:255 -1:255 32 0] 
r 13.011203453 _4_ MAC  --- 8 message 44 [0 ffffffff 1 800] [energy 986.988797 ei 13.005 es 0.000 et 0.001 er 0.006] ------- [1:255 -1:255 32 0] 
r 13.011203456 _0_ MAC  --- 8 message 44 [0 ffffffff 1 800] [energy 986.988797 ei 13.005 es 0.000 et 0.001 er 0.005] ------- [1:255 -1:255 32 0] 
r 13.011228437 _3_ RTR  --- 8 message 44 [0 ffffffff 1 800] [energy 986.988797 ei 13.005 es 0.000 et 0.001 er 0.005] ------- [1:255 -1:255 32 0] 
r 13.011228438 _2_ RTR  --- 8 message 44 [0 ffffffff 1 800] [energy 986.988797 ei 13.005 es 0.000 et 0.001 er 0.006] ------- [1:255 -1:255 32 0] 
r 13.011228453 _4_ RTR  --- 8 message 44 [0 ffffffff 1 800] [energy 986.988797 ei 13.005 es 0.000 et 0.001 er 0.006] ------- [1:255 -1:255 32 0] 
r 13.011228456 _0_ RTR  --- 8 message 44 [0 ffffffff 1 800] [energy 986.988797 ei 13.005 es 0.000 et 0.001 er 0.005] ------- [1:255 -1:255 32 0] 
s 13.045971345 _4_ RTR  --- 9 message 32 [0 0 0 0] [energy 986.988797 ei 13.005 es 0.000 et 0.001 er 0.006] ------- [4:255 -1:255 32 0] 
s 13.046646345 _4_ MAC  --- 9 message 90 [0 ffffffff 4 800] [energy 986.988797 ei 13.005 es 0.000 et 0.001 er 0.006] ------- [4:255 -1:255 32 0] 
N -t 13.046647 -n 1 -e 986.952633
N -t 13.046647 -n 2 -e 986.952633
N -t 13.046647 -n 0 -e 986.952633
N -t 13.046647 -n 3 -e 986.952633
r 13.047366549 _1_ MAC  --- 9 message 32 [0 ffffffff 4 800] [energy 986.952633 ei 13.040 es 0.000 et 0.002 er 0.005] ------- [4:255 -1:255 32 0] 
r 13.047391549 _1_ RTR  --- 9 message 32 [0 ffffffff 4 800] [energy 986.952633 ei 13.040 es 0.000 et 0.002 er 0.005] ------- [4:255 -1:255 32 0] 
s 13.072536912 _1_ RTR  --- 10 message 44 [0 0 0 0] [energy 986.952633 ei 13.040 es 0.000 et 0.002 er 0.005] ------- [1:255 -1:255 32 0] 
s 13.072911912 _1_ MAC  --- 10 message 102 [0 ffffffff 1 800] [energy 986.952633 ei 13.040 es 0.000 et 0.002 er 0.005] ------- [1:255 -1:255 32 0] 
N -t 13.072912 -n 3 -e 986.926272
N -t 13.072912 -n 2 -e 986.926272
N -t 13.072912 -n 4 -e 986.926272
N -t 13.072912 -n 0 -e 986.926272
r 13.073728100 _3_ MAC  --- 10 message 44 [0 ffffffff 1 800] [energy 986.926272 ei 13.066 es 0.000 et 0.001 er 0.007] ------- [1:255 -1:255 32 0] 
r 13.073728101 _2_ MAC  --- 10 message 44 [0 ffffffff 1 800] [energy 986.926272 ei 13.066 es 0.000 et 0.001 er 0.007] ------- [1:255 -1:255 32 0] 
r 13.073728116 _4_ MAC  --- 10 message 44 [0 ffffffff 1 800] [energy 986.926272 ei 13.066 es 0.000 et 0.001 er 0.007] ------- [1:255 -1:255 32 0] 
r 13.073728119 _0_ MAC  --- 10 message 44 [0 ffffffff 1 800] [energy 986.926272 ei 13.066 es 0.000 et 0.001 er 0.007] ------- [1:255 -1:255 32 0] 
r 13.073753100 _3_ RTR  --- 10 message 44 [0 ffffffff 1 800] [energy 986.926272 ei 13.066 es 0.000 et 0.001 er 0.007] ------- [1:255 -1:255 32 0] 
r 13.073753101 _2_ RTR  --- 10 message 44 [0 ffffffff 1 800] [energy 986.926272 ei 13.066 es 0.000 et 0.001 er 0.007] ------- [1:255 -1:255 32 0] 
r 13.073753116 _4_ RTR  --- 10 message 44 [0 ffffffff 1 800] [energy 986.926272 ei 13.066 es 0.000 et 0.001 er 0.007] ------- [1:255 -1:255 32 0] 
r 13.073753119 _0_ RTR  --- 10 message 44 [0 ffffffff 1 800] [energy 986.926272 ei 13.066 es 0.000 et 0.001 er 0.007] ------- [1:255 -1:255 32 0] 
s 13.679497342 _2_ RTR  --- 14 message 32 [0 0 0 0] [energy 986.926272 ei 13.066 es 0.000 et 0.001 er 0.007] ------- [2:255 -1:255 32 0] 
s 13.679732342 _2_ MAC  --- 14 message 90 [0 ffffffff 2 800] [energy 986.926272 ei 13.066 es 0.000 et 0.001 er 0.007] ------- [2:255 -1:255 32 0] 
N -t 13.679733 -n 1 -e 986.319547
N -t 13.679733 -n 4 -e 986.319547
N -t 13.679733 -n 3 -e 986.319547
N -t 13.679733 -n 0 -e 986.319547
r 13.680452531 _1_ MAC  --- 14 message 32 [0 ffffffff 2 800] [energy 986.319547 ei 13.672 es 0.000 et 0.003 er 0.006] ------- [2:255 -1:255 32 0] 
r 13.680477531 _1_ RTR  --- 14 message 32 [0 ffffffff 2 800] [energy 986.319547 ei 13.672 es 0.000 et 0.003 er 0.006] ------- [2:255 -1:255 32 0] 
s 24.020178725 _3_ RTR  --- 16 message 44 [0 0 0 0] [energy 986.319547 ei 13.672 es 0.000 et 0.001 er 0.007] ------- [3:255 -1:255 32 0] 
s 24.020573725 _3_ MAC  --- 16 message 102 [0 ffffffff 3 800] [energy 986.319547 ei 13.672 es 0.000 et 0.001 er 0.007] ------- [3:255 -1:255 32 0] 
N -t 24.020574 -n 1 -e 975.978610
N -t 24.020574 -n 0 -e 975.978610
N -t 24.020574 -n 2 -e 975.978610
N -t 24.020574 -n 4 -e 975.978610
r 24.021389913 _1_ MAC  --- 16 message 44 [0 ffffffff 3 800] [energy 975.978610 ei 24.012 es 0.000 et 0.003 er 0.007] ------- [3:255 -1:255 32 0] 
r 24.021414913 _1_ RTR  --- 16 message 44 [0 ffffffff 3 800] [energy 975.978610 ei 24.012 es 0.000 et 0.003 er 0.007] ------- [3:255 -1:255 32 0] 
s 24.025761349 _4_ RTR  --- 18 message 44 [0 0 0 0] [energy 975.978610 ei 24.012 es 0.000 et 0.001 er 0.008] ------- [4:255 -1:255 32 0] 
s 24.025773953 _2_ RTR  --- 17 message 44 [0 0 0 0] [energy 975.978610 ei 24.012 es 0.000 et 0.001 er 0.008] ------- [2:255 -1:255 32 0] 
s 24.025948953 _2_ MAC  --- 17 message 102 [0 ffffffff 2 800] [energy 975.978610 ei 24.012 es 0.000 et 0.001 er 0.008] ------- [2:255 -1:255 32 0] 
N -t 24.025949 -n 1 -e 975.973235
N -t 24.025949 -n 4 -e 975.973235
N -t 24.025949 -n 3 -e 975.973235
N -t 24.025949 -n 0 -e 975.973235
r 24.026765142 _1_ MAC  --- 17 message 44 [0 ffffffff 2 800] [energy 975.973235 ei 24.016 es 0.000 et 0.003 er 0.007] ------- [2:255 -1:255 32 0] 
r 24.026790142 _1_ RTR  --- 17 message 44 [0 ffffffff 2 800] [energy 975.973235 ei 24.016 es 0.000 et 0.003 er 0.007] ------- [2:255 -1:255 32 0] 
s 24.027339194 _4_ MAC  --- 18 message 102 [0 ffffffff 4 800] [energy 975.973235 ei 24.016 es 0.000 et 0.001 er 0.009] ------- [4:255 -1:255 32 0] 
N -t 24.027339 -n 1 -e 975.971845
N -t 24.027339 -n 2 -e 975.971845
N -t 24.027339 -n 0 -e 975.971845
N -t 24.027340 -n 3 -e 975.971844
r 24.028155398 _1_ MAC  --- 18 message 44 [0 ffffffff 4 800] [energy 975.971845 ei 24.017 es 0.000 et 0.003 er 0.008] ------- [4:255 -1:255 32 0] 
r 24.028180398 _1_ RTR  --- 18 message 44 [0 ffffffff 4 800] [energy 975.971845 ei 24.017 es 0.000 et 0.003 er 0.008] ------- [4:255 -1:255 32 0] 
s 24.629990493 _3_ RTR  --- 19 message 56 [0 0 0 0] [energy 975.971844 ei 24.017 es 0.000 et 0.002 er 0.009] ------- [3:255 -1:255 32 0] 
s 24.630505493 _3_ MAC  --- 19 message 114 [0 ffffffff 3 800] [energy 975.971844 ei 24.017 es 0.000 et 0.002 er 0.009] ------- [3:255 -1:255 32 0] 
N -t 24.630506 -n 1 -e 975.368582
N -t 24.630506 -n 0 -e 975.368582
N -t 24.630506 -n 2 -e 975.368582
N -t 24.630506 -n 4 -e 975.368582
r 24.631417681 _1_ MAC  --- 19 message 56 [0 ffffffff 3 800] [energy 975.368582 ei 24.619 es 0.000 et 0.003 er 0.009] ------- [3:255 -1:255 32 0] 
r 24.631442681 _1_ RTR  --- 19 message 56 [0 ffffffff 3 800] [energy 975.368582 ei 24.619 es 0.000 et 0.003 er 0.009] ------- [3:255 -1:255 32 0] 
s 25.011873346 _0_ RTR  --- 20 message 56 [0 0 0 0] [energy 975.368582 ei 24.619 es 0.000 et 0.001 er 0.011] ------- [0:255 -1:255 32 0] 
s 25.012088346 _0_ MAC  --- 20 message 114 [0 ffffffff 0 800] [energy 975.368582 ei 24.619 es 0.000 et 0.001 er 0.011] ------- [0:255 -1:255 32 0] 
N -t 25.012089 -n 1 -e 974.986999
N -t 25.012089 -n 3 -e 974.986999
N -t 25.012089 -n 4 -e 974.986999
N -t 25.012089 -n 2 -e 974.986999
r 25.013000553 _1_ MAC  --- 20 message 56 [0 ffffffff 0 800] [energy 974.986999 ei 25.000 es 0.000 et 0.003 er 0.010] ------- [0:255 -1:255 32 0] 
r 25.013025553 _1_ RTR  --- 20 message 56 [0 ffffffff 0 800] [energy 974.986999 ei 25.000 es 0.000 et 0.003 er 0.010] ------- [0:255 -1:255 32 0] 
s 25.017548372 _4_ RTR  --- 22 message 56 [0 0 0 0] [energy 974.986999 ei 25.000 es 0.000 et 0.002 er 0.011] ------- [4:255 -1:255 32 0] 
s 25.018203372 _4_ MAC  --- 22 message 114 [0 ffffffff 4 800] [energy 974.986999 ei 25.000 es 0.000 et 0.002 er 0.011] ------- [4:255 -1:255 32 0] 
N -t 25.018204 -n 1 -e 974.980884
N -t 25.018204 -n 2 -e 974.980884
N -t 25.018204 -n 0 -e 974.980884
N -t 25.018204 -n 3 -e 974.980884
r 25.019115576 _1_ MAC  --- 22 message 56 [0 ffffffff 4 800] [energy 974.980884 ei 25.005 es 0.000 et 0.003 er 0.011] ------- [4:255 -1:255 32 0] 
r 25.019140576 _1_ RTR  --- 22 message 56 [0 ffffffff 4 800] [energy 974.980884 ei 25.005 es 0.000 et 0.003 er 0.011] ------- [4:255 -1:255 32 0] 
s 25.025263791 _2_ RTR  --- 21 message 56 [0 0 0 0] [energy 974.980884 ei 25.005 es 0.000 et 0.002 er 0.012] ------- [2:255 -1:255 32 0] 
s 25.025438791 _2_ MAC  --- 21 message 114 [0 ffffffff 2 800] [energy 974.980884 ei 25.005 es 0.000 et 0.002 er 0.012] ------- [2:255 -1:255 32 0] 
N -t 25.025439 -n 1 -e 974.973649
N -t 25.025439 -n 4 -e 974.973649
N -t 25.025439 -n 3 -e 974.973649
N -t 25.025439 -n 0 -e 974.973649
r 25.026350980 _1_ MAC  --- 21 message 56 [0 ffffffff 2 800] [energy 974.973649 ei 25.011 es 0.000 et 0.003 er 0.012] ------- [2:255 -1:255 32 0] 
r 25.026375980 _1_ RTR  --- 21 message 56 [0 ffffffff 2 800] [energy 974.973649 ei 25.011 es 0.000 et 0.003 er 0.012] ------- [2:255 -1:255 32 0] 
s 25.635365943 _3_ RTR  --- 23 message 44 [0 0 0 0] [energy 974.973649 ei 25.011 es 0.000 et 0.003 er 0.012] ------- [3:255 -1:255 32 0] 
s 25.635560943 _3_ MAC  --- 23 message 102 [0 ffffffff 3 800] [energy 974.973649 ei 25.011 es 0.000 et 0.003 er 0.012] ------- [3:255 -1:255 32 0] 
N -t 25.635561 -n 1 -e 974.363623
N -t 25.635561 -n 0 -e 974.363623
N -t 25.635561 -n 2 -e 974.363623
N -t 25.635561 -n 4 -e 974.363623
r 25.636377131 _1_ MAC  --- 23 message 44 [0 ffffffff 3 800] [energy 974.363623 ei 25.621 es 0.000 et 0.003 er 0.013] ------- [3:255 -1:255 32 0] 
r 25.636402131 _1_ RTR  --- 23 message 44 [0 ffffffff 3 800] [energy 974.363623 ei 25.621 es 0.000 et 0.003 er 0.013] ------- [3:255 -1:255 32 0] 
s 26.018526330 _0_ RTR  --- 24 message 56 [0 0 0 0] [energy 974.363623 ei 25.621 es 0.000 et 0.002 er 0.013] ------- [0:255 -1:255 32 0] 
s 26.019141330 _0_ MAC  --- 24 message 114 [0 ffffffff 0 800] [energy 974.363623 ei 25.621 es 0.000 et 0.002 er 0.013] ------- [0:255 -1:255 32 0] 
N -t 26.019142 -n 1 -e 973.979946
N -t 26.019142 -n 3 -e 973.979946
N -t 26.019142 -n 4 -e 973.979946
N -t 26.019142 -n 2 -e 973.979946
r 26.020053537 _1_ MAC  --- 24 message 56 [0 ffffffff 0 800] [energy 973.979946 ei 26.003 es 0.000 et 0.003 er 0.014] ------- [0:255 -1:255 32 0] 
r 26.020078537 _1_ RTR  --- 24 message 56 [0 ffffffff 0 800] [energy 973.979946 ei 26.003 es 0.000 et 0.003 er 0.014] ------- [0:255 -1:255 32 0] 
s 26.176085705 _2_ RTR  --- 25 message 68 [0 0 0 0] [energy 973.979946 ei 26.003 es 0.000 et 0.003 er 0.013] ------- [2:255 -1:255 32 0] 
s 26.176500705 _2_ MAC  --- 25 message 126 [0 ffffffff 2 800] [energy 973.979946 ei 26.003 es 0.000 et 0.003 er 0.013] ------- [2:255 -1:255 32 0] 
N -t 26.176501 -n 1 -e 973.822491
N -t 26.176501 -n 4 -e 973.822491
N -t 26.176501 -n 3 -e 973.822491
N -t 26.176501 -n 0 -e 973.822491
r 26.177508894 _1_ MAC  --- 25 message 68 [0 ffffffff 2 800] [energy 973.822491 ei 26.160 es 0.000 et 0.003 er 0.015] ------- [2:255 -1:255 32 0] 
r 26.177533894 _1_ RTR  --- 25 message 68 [0 ffffffff 2 800] [energy 973.822491 ei 26.160 es 0.000 et 0.003 er 0.015] ------- [2:255 -1:255 32 0] 
s 26.573823855 _0_ RTR  --- 26 message 68 [0 0 0 0] [energy 973.822491 ei 26.160 es 0.000 et 0.003 er 0.014] ------- [0:255 -1:255 32 0] 
s 26.573898855 _0_ MAC  --- 26 message 126 [0 ffffffff 0 800] [energy 973.822491 ei 26.160 es 0.000 et 0.003 er 0.014] ------- [0:255 -1:255 32 0] 
N -t 26.573899 -n 1 -e 973.425093
N -t 26.573899 -n 3 -e 973.425093
N -t 26.573899 -n 4 -e 973.425093
N -t 26.573899 -n 2 -e 973.425093
r 26.574907061 _1_ MAC  --- 26 message 68 [0 ffffffff 0 800] [energy 973.425093 ei 26.556 es 0.000 et 0.003 er 0.016] ------- [0:255 -1:255 32 0] 
r 26.574932061 _1_ RTR  --- 26 message 68 [0 ffffffff 0 800] [energy 973.425093 ei 26.556 es 0.000 et 0.003 er 0.016] ------- [0:255 -1:255 32 0] 
s 27.026637997 _4_ RTR  --- 27 message 68 [0 0 0 0] [energy 973.425093 ei 26.556 es 0.000 et 0.003 er 0.016] ------- [4:255 -1:255 32 0] 
s 27.027172997 _4_ MAC  --- 27 message 126 [0 ffffffff 4 800] [energy 973.425093 ei 26.556 es 0.000 et 0.003 er 0.016] ------- [4:255 -1:255 32 0] 
N -t 27.027173 -n 1 -e 972.971819
N -t 27.027173 -n 2 -e 972.971819
N -t 27.027173 -n 0 -e 972.971819
N -t 27.027173 -n 3 -e 972.971819
r 27.028181201 _1_ MAC  --- 27 message 68 [0 ffffffff 4 800] [energy 972.971819 ei 27.009 es 0.000 et 0.003 er 0.017] ------- [4:255 -1:255 32 0] 
r 27.028206201 _1_ RTR  --- 27 message 68 [0 ffffffff 4 800] [energy 972.971819 ei 27.009 es 0.000 et 0.003 er 0.017] ------- [4:255 -1:255 32 0] 
s 27.259339838 _1_ RTR  --- 28 message 32 [0 0 0 0] [energy 972.971819 ei 27.009 es 0.000 et 0.003 er 0.017] ------- [1:255 -1:255 32 0] 
s 27.259774838 _1_ MAC  --- 28 message 90 [0 ffffffff 1 800] [energy 972.971819 ei 27.009 es 0.000 et 0.003 er 0.017] ------- [1:255 -1:255 32 0] 
N -t 27.259775 -n 3 -e 972.739505
N -t 27.259775 -n 2 -e 972.739505
N -t 27.259775 -n 4 -e 972.739505
N -t 27.259775 -n 0 -e 972.739505
r 27.260495025 _3_ MAC  --- 28 message 32 [0 ffffffff 1 800] [energy 972.739505 ei 27.240 es 0.000 et 0.004 er 0.016] ------- [1:255 -1:255 32 0] 
r 27.260495027 _2_ MAC  --- 28 message 32 [0 ffffffff 1 800] [energy 972.739505 ei 27.240 es 0.000 et 0.004 er 0.016] ------- [1:255 -1:255 32 0] 
r 27.260495042 _4_ MAC  --- 28 message 32 [0 ffffffff 1 800] [energy 972.739505 ei 27.240 es 0.000 et 0.004 er 0.016] ------- [1:255 -1:255 32 0] 
r 27.260495044 _0_ MAC  --- 28 message 32 [0 ffffffff 1 800] [energy 972.739505 ei 27.240 es 0.000 et 0.004 er 0.016] ------- [1:255 -1:255 32 0] 
r 27.260520025 _3_ RTR  --- 28 message 32 [0 ffffffff 1 800] [energy 972.739505 ei 27.240 es 0.000 et 0.004 er 0.016] ------- [1:255 -1:255 32 0] 
r 27.260520027 _2_ RTR  --- 28 message 32 [0 ffffffff 1 800] [energy 972.739505 ei 27.240 es 0.000 et 0.004 er 0.016] ------- [1:255 -1:255 32 0] 
r 27.260520042 _4_ RTR  --- 28 message 32 [0 ffffffff 1 800] [energy 972.739505 ei 27.240 es 0.000 et 0.004 er 0.016] ------- [1:255 -1:255 32 0] 
r 27.260520044 _0_ RTR  --- 28 message 32 [0 ffffffff 1 800] [energy 972.739505 ei 27.240 es 0.000 et 0.004 er 0.016] ------- [1:255 -1:255 32 0] 
s 37.979907455 _0_ RTR  --- 29 message 68 [0 0 0 0] [energy 972.739505 ei 27.240 es 0.000 et 0.004 er 0.016] ------- [0:255 -1:255 32 0] 
s 37.980502455 _0_ MAC  --- 29 message 126 [0 ffffffff 0 800] [energy 972.739505 ei 27.240 es 0.000 et 0.004 er 0.016] ------- [0:255 -1:255 32 0] 
N -t 37.980503 -n 1 -e 962.018489
N -t 37.980503 -n 3 -e 962.018489
N -t 37.980503 -n 4 -e 962.018489
N -t 37.980503 -n 2 -e 962.018489
r 37.981510661 _1_ MAC  --- 29 message 68 [0 ffffffff 0 800] [energy 962.018489 ei 37.960 es 0.000 et 0.004 er 0.018] ------- [0:255 -1:255 32 0] 
r 37.981535661 _1_ RTR  --- 29 message 68 [0 ffffffff 0 800] [energy 962.018489 ei 37.960 es 0.000 et 0.004 er 0.018] ------- [0:255 -1:255 32 0] 
s 38.422148034 _2_ RTR  --- 30 message 68 [0 0 0 0] [energy 962.018489 ei 37.960 es 0.000 et 0.004 er 0.017] ------- [2:255 -1:255 32 0] 
s 38.422563034 _2_ MAC  --- 30 message 126 [0 ffffffff 2 800] [energy 962.018489 ei 37.960 es 0.000 et 0.004 er 0.017] ------- [2:255 -1:255 32 0] 
N -t 38.422563 -n 1 -e 961.576429
N -t 38.422563 -n 4 -e 961.576429
N -t 38.422563 -n 3 -e 961.576429
N -t 38.422563 -n 0 -e 961.576429
r 38.423571223 _1_ MAC  --- 30 message 68 [0 ffffffff 2 800] [energy 961.576429 ei 38.401 es 0.000 et 0.004 er 0.019] ------- [2:255 -1:255 32 0] 
r 38.423596223 _1_ RTR  --- 30 message 68 [0 ffffffff 2 800] [energy 961.576429 ei 38.401 es 0.000 et 0.004 er 0.019] ------- [2:255 -1:255 32 0] 
s 38.639392026 _3_ RTR  --- 31 message 80 [0 0 0 0] [energy 961.576429 ei 38.401 es 0.000 et 0.004 er 0.018] ------- [3:255 -1:255 32 0] 
s 38.639887026 _3_ MAC  --- 31 message 138 [0 ffffffff 3 800] [energy 961.576429 ei 38.401 es 0.000 et 0.004 er 0.018] ------- [3:255 -1:255 32 0] 
N -t 38.639887 -n 1 -e 961.359009
N -t 38.639887 -n 0 -e 961.359009
N -t 38.639887 -n 2 -e 961.359009
N -t 38.639887 -n 4 -e 961.359009
r 38.640991214 _1_ MAC  --- 31 message 80 [0 ffffffff 3 800] [energy 961.359009 ei 38.617 es 0.000 et 0.004 er 0.020] ------- [3:255 -1:255 32 0] 
r 38.641016214 _1_ RTR  --- 31 message 80 [0 ffffffff 3 800] [energy 961.359009 ei 38.617 es 0.000 et 0.004 er 0.020] ------- [3:255 -1:255 32 0] 
s 40.070950439 _1_ RTR  --- 32 message 44 [0 0 0 0] [energy 961.359009 ei 38.617 es 0.000 et 0.004 er 0.020] ------- [1:255 -1:255 32 0] 
s 40.071505439 _1_ MAC  --- 32 message 102 [0 ffffffff 1 800] [energy 961.359009 ei 38.617 es 0.000 et 0.004 er 0.020] ------- [1:255 -1:255 32 0] 
N -t 40.071506 -n 3 -e 959.927678
N -t 40.071506 -n 2 -e 959.927678
N -t 40.071506 -n 4 -e 959.927678
N -t 40.071506 -n 0 -e 959.927678
r 40.072321626 _3_ MAC  --- 32 message 44 [0 ffffffff 1 800] [energy 959.927678 ei 40.048 es 0.000 et 0.005 er 0.019] ------- [1:255 -1:255 32 0] 
r 40.072321628 _2_ MAC  --- 32 message 44 [0 ffffffff 1 800] [energy 959.927678 ei 40.048 es 0.000 et 0.005 er 0.019] ------- [1:255 -1:255 32 0] 
r 40.072321642 _4_ MAC  --- 32 message 44 [0 ffffffff 1 800] [energy 959.927678 ei 40.048 es 0.000 et 0.004 er 0.020] ------- [1:255 -1:255 32 0] 
r 40.072321645 _0_ MAC  --- 32 message 44 [0 ffffffff 1 800] [energy 959.927678 ei 40.048 es 0.000 et 0.005 er 0.019] ------- [1:255 -1:255 32 0] 
r 40.072346626 _3_ RTR  --- 32 message 44 [0 ffffffff 1 800] [energy 959.927678 ei 40.048 es 0.000 et 0.005 er 0.019] ------- [1:255 -1:255 32 0] 
r 40.072346628 _2_ RTR  --- 32 message 44 [0 ffffffff 1 800] [energy 959.927678 ei 40.048 es 0.000 et 0.005 er 0.019] ------- [1:255 -1:255 32 0] 
r 40.072346642 _4_ RTR  --- 32 message 44 [0 ffffffff 1 800] [energy 959.927678 ei 40.048 es 0.000 et 0.004 er 0.020] ------- [1:255 -1:255 32 0] 
r 40.072346645 _0_ RTR  --- 32 message 44 [0 ffffffff 1 800] [energy 959.927678 ei 40.048 es 0.000 et 0.005 er 0.019] ------- [1:255 -1:255 32 0] 
s 41.350944057 _4_ RTR  --- 33 message 56 [0 0 0 0] [energy 959.927678 ei 40.048 es 0.000 et 0.004 er 0.020] ------- [4:255 -1:255 32 0] 
s 41.351599057 _4_ MAC  --- 33 message 114 [0 ffffffff 4 800] [energy 959.927678 ei 40.048 es 0.000 et 0.004 er 0.020] ------- [4:255 -1:255 32 0] 
N -t 41.351599 -n 1 -e 958.647489
N -t 41.351599 -n 2 -e 958.647489
N -t 41.351599 -n 0 -e 958.647489
N -t 41.351599 -n 3 -e 958.647489
r 41.352511261 _1_ MAC  --- 33 message 56 [0 ffffffff 4 800] [energy 958.647489 ei 41.327 es 0.000 et 0.005 er 0.021] ------- [4:255 -1:255 32 0] 
r 41.352536261 _1_ RTR  --- 33 message 56 [0 ffffffff 4 800] [energy 958.647489 ei 41.327 es 0.000 et 0.005 er 0.021] ------- [4:255 -1:255 32 0] 
s 50.000000000 _0_ AGT  --- 34 cbr 50 [0 0 0 0] [energy 958.647489 ei 41.327 es 0.000 et 0.005 er 0.020] ------- [0:0 2:0 32 0] [0] 0 1
r 50.000000000 _0_ RTR  --- 34 cbr 50 [0 0 0 0] [energy 958.647489 ei 41.327 es 0.000 et 0.005 er 0.020] ------- [0:0 2:0 32 0] [0] 0 1
s 50.000000000 _0_ RTR  --- 34 cbr 70 [0 0 0 0] [energy 958.647489 ei 41.327 es 0.000 et 0.005 er 0.020] ------- [0:0 2:0 32 1] [0] 0 1
s 50.000000000 _3_ AGT  --- 35 cbr 100 [0 0 0 0] [energy 958.647489 ei 41.327 es 0.000 et 0.005 er 0.020] ------- [3:0 4:0 32 0] [0] 0 1
r 50.000000000 _3_ RTR  --- 35 cbr 100 [0 0 0 0] [energy 958.647489 ei 41.327 es 0.000 et 0.005 er 0.020] ------- [3:0 4:0 32 0] [0] 0 1
s 50.000000000 _3_ RTR  --- 35 cbr 120 [0 0 0 0] [energy 958.647489 ei 41.327 es 0.000 et 0.005 er 0.020] ------- [3:0 4:0 32 1] [0] 0 1
s 50.000295000 _3_ MAC  --- 0 ARP 86 [0 ffffffff 3 806] [energy 958.647489 ei 41.327 es 0.000 et 0.005 er 0.020] ------- [REQUEST 3/3 0/1]
N -t 50.000295 -n 1 -e 949.999017
N -t 50.000295 -n 0 -e 949.999017
N -t 50.000295 -n 2 -e 949.999017
N -t 50.000295 -n 4 -e 949.999017
r 50.000983188 _1_ MAC  --- 0 ARP 28 [0 ffffffff 3 806] [energy 949.999017 ei 49.975 es 0.000 et 0.005 er 0.021] ------- [REQUEST 3/3 0/1]
s 50.001478188 _1_ MAC  --- 0 RTS 44 [52e 3 1 0] [energy 949.999017 ei 49.975 es 0.000 et 0.005 er 0.021] 
N -t 50.001478 -n 3 -e 949.998170
N -t 50.001478 -n 2 -e 949.998170
N -t 50.001478 -n 4 -e 949.998170
N -t 50.001478 -n 0 -e 949.998170
r 50.001830375 _3_ MAC  --- 0 RTS 44 [52e 3 1 0] [energy 949.998170 ei 49.976 es 0.000 et 0.006 er 0.021] 
s 50.001840375 _3_ MAC  --- 0 CTS 38 [3f4 1 0 0] [energy 949.998170 ei 49.976 es 0.000 et 0.006 er 0.021] 
N -t 50.001841 -n 1 -e 949.997855
N -t 50.001841 -n 0 -e 949.997855
N -t 50.001841 -n 2 -e 949.997855
N -t 50.001841 -n 4 -e 949.997855
r 50.002144563 _1_ MAC  --- 0 CTS 38 [3f4 1 0 0] [energy 949.997855 ei 49.976 es 0.000 et 0.005 er 0.022] 
s 50.002154563 _1_ MAC  --- 0 ARP 86 [13a 3 1 806] [energy 949.997855 ei 49.976 es 0.000 et 0.005 er 0.022] ------- [REPLY 1/1 3/3]
N -t 50.002155 -n 3 -e 949.997157
N -t 50.002155 -n 2 -e 949.997157
N -t 50.002155 -n 4 -e 949.997157
N -t 50.002155 -n 0 -e 949.997157
r 50.002842750 _3_ MAC  --- 0 ARP 28 [13a 3 1 806] [energy 949.997157 ei 49.976 es 0.000 et 0.006 er 0.021] ------- [REPLY 1/1 3/3]
s 50.002852750 _3_ MAC  --- 0 ACK 38 [0 1 0 0] [energy 949.997157 ei 49.976 es 0.000 et 0.006 er 0.021] 
N -t 50.002853 -n 1 -e 949.996843
N -t 50.002853 -n 0 -e 949.996843
N -t 50.002853 -n 2 -e 949.996843
N -t 50.002853 -n 4 -e 949.996843
r 50.003156938 _1_ MAC  --- 0 ACK 38 [0 1 0 0] [energy 949.996843 ei 49.976 es 0.000 et 0.006 er 0.022] 
s 50.003326750 _3_ MAC  --- 0 RTS 44 [80e 1 3 0] [energy 949.996843 ei 49.976 es 0.000 et 0.006 er 0.021] 
N -t 50.003327 -n 1 -e 949.996321
N -t 50.003327 -n 0 -e 949.996321
N -t 50.003327 -n 2 -e 949.996321
N -t 50.003327 -n 4 -e 949.996321
r 50.003678938 _1_ MAC  --- 0 RTS 44 [80e 1 3 0] [energy 949.996321 ei 49.976 es 0.000 et 0.006 er 0.022] 